Index,Polymer,Contact_angle,Thickness_um,Solvent,Solvent_solubility_parameter_Mpa_sqrt,xw_wt_percent,Temp_C,Permeate_pressure_mbar,J_Total_flux_kg_m_2h_1,a_Separation_factor_wo,Polymer_SMILES,Solvent_SMILES,Sum_of_frags,Polymer_SELFIES,Solvent_SELFIES,Polymer_BigSMILES,PS_SMILES,PS_SELFIES,PS_BigSMILES
35,p84,82.3,28.0,ipa,23.5,15.0,60,5.0,0.0273,1106.321839,Cc1cc(c7ccc(Cc6ccc([*])cc6)cc7)ccc1n5c(=O)c4ccc(C(=O)c3ccc2c(=O)n([*])c(=O)c2c3)cc4c5=O,CC(C)O,"[3, 1, 1, 5, 1, 0, 0, 0, 2, 5, 0, 0, 0, 0, 0]",[C][C][=C][C][=C][Branch1_1][=N][C][C][=C][C][=C][Branch1_1][C][C][C][=C][Ring1][Branch1_3][C][=C][Ring1][=C].[C][C][=C][C][Branch1_1][C][C][=C][C][=C][Ring1][Branch1_3][N][C][Branch1_2][C][=O][C][=C][C][=C][Branch2_1][Ring1][O][C][Branch1_2][C][=O][C][=C][C][=C][C][Branch1_2][C][=O][N][Branch1_1][C][C][C][Branch1_2][C][=O][C][Ring1][Branch2_1][=C][Ring1][N][C][=C][Ring2][Ring1][Ring2][C][Ring2][Ring1][Branch2_1][=O],[C][C][Branch1_1][C][C][O],{[][<]*c1ccccc1[>][<]}{[>][<]C[>][<]}{[>][<]c1ccccc1[>][<]}{[>][<]Cc1ccccc1[>][<]}{[>][<]O=C1NC(=O)c2ccccc21[>][<]}{[>][<]C=O[>][<]}{[>][<]*N1C(=O)c2ccccc2C1=O[>][]},Cc1cc(c7ccc(Cc6ccc([*])cc6)cc7)ccc1n5c(=O)c4ccc(C(=O)c3ccc2c(=O)n([*])c(=O)c2c3)cc4c5=O.CC(C)O,[C][C][=C][C][=C][Branch1_1][=N][C][C][=C][C][=C][Branch1_1][C][C][C][=C][Ring1][Branch1_3][C][=C][Ring1][=C].[C][C][=C][C][Branch1_1][C][C][=C][C][=C][Ring1][Branch1_3][N][C][Branch1_2][C][=O][C][=C][C][=C][Branch2_1][Ring1][O][C][Branch1_2][C][=O][C][=C][C][=C][C][Branch1_2][C][=O][N][Branch1_1][C][C][C][Branch1_2][C][=O][C][Ring1][Branch2_1][=C][Ring1][N][C][=C][Ring2][Ring1][Ring2][C][Ring2][Ring1][Branch2_1][=O].[C][C][Branch1_1][C][C][O],{[][<]*c1ccccc1[>][<]}{[>][<]C[>][<]}{[>][<]c1ccccc1[>][<]}{[>][<]Cc1ccccc1[>][<]}{[>][<]O=C1NC(=O)c2ccccc21[>][<]}{[>][<]C=O[>][<]}{[>][<]*N1C(=O)c2ccccc2C1=O[>][]}.CC(C)O
36,p84,82.3,28.0,ipa,23.5,15.0,80,5.0,0.0392,1025.862069,Cc1cc(c7ccc(Cc6ccc([*])cc6)cc7)ccc1n5c(=O)c4ccc(C(=O)c3ccc2c(=O)n([*])c(=O)c2c3)cc4c5=O,CC(C)O,"[3, 1, 1, 5, 1, 0, 0, 0, 2, 5, 0, 0, 0, 0, 0]",[C][C][=C][C][=C][Branch1_1][=N][C][C][=C][C][=C][Branch1_1][C][C][C][=C][Ring1][Branch1_3][C][=C][Ring1][=C].[C][C][=C][C][Branch1_1][C][C][=C][C][=C][Ring1][Branch1_3][N][C][Branch1_2][C][=O][C][=C][C][=C][Branch2_1][Ring1][O][C][Branch1_2][C][=O][C][=C][C][=C][C][Branch1_2][C][=O][N][Branch1_1][C][C][C][Branch1_2][C][=O][C][Ring1][Branch2_1][=C][Ring1][N][C][=C][Ring2][Ring1][Ring2][C][Ring2][Ring1][Branch2_1][=O],[C][C][Branch1_1][C][C][O],{[][<]*c1ccccc1[>][<]}{[>][<]C[>][<]}{[>][<]c1ccccc1[>][<]}{[>][<]Cc1ccccc1[>][<]}{[>][<]O=C1NC(=O)c2ccccc21[>][<]}{[>][<]C=O[>][<]}{[>][<]*N1C(=O)c2ccccc2C1=O[>][]},Cc1cc(c7ccc(Cc6ccc([*])cc6)cc7)ccc1n5c(=O)c4ccc(C(=O)c3ccc2c(=O)n([*])c(=O)c2c3)cc4c5=O.CC(C)O,[C][C][=C][C][=C][Branch1_1][=N][C][C][=C][C][=C][Branch1_1][C][C][C][=C][Ring1][Branch1_3][C][=C][Ring1][=C].[C][C][=C][C][Branch1_1][C][C][=C][C][=C][Ring1][Branch1_3][N][C][Branch1_2][C][=O][C][=C][C][=C][Branch2_1][Ring1][O][C][Branch1_2][C][=O][C][=C][C][=C][C][Branch1_2][C][=O][N][Branch1_1][C][C][C][Branch1_2][C][=O][C][Ring1][Branch2_1][=C][Ring1][N][C][=C][Ring2][Ring1][Ring2][C][Ring2][Ring1][Branch2_1][=O].[C][C][Branch1_1][C][C][O],{[][<]*c1ccccc1[>][<]}{[>][<]C[>][<]}{[>][<]c1ccccc1[>][<]}{[>][<]Cc1ccccc1[>][<]}{[>][<]O=C1NC(=O)c2ccccc21[>][<]}{[>][<]C=O[>][<]}{[>][<]*N1C(=O)c2ccccc2C1=O[>][]}.CC(C)O
37,p84,82.3,28.0,ipa,23.5,15.0,100,5.0,0.0699,864.942529,Cc1cc(c7ccc(Cc6ccc([*])cc6)cc7)ccc1n5c(=O)c4ccc(C(=O)c3ccc2c(=O)n([*])c(=O)c2c3)cc4c5=O,CC(C)O,"[3, 1, 1, 5, 1, 0, 0, 0, 2, 5, 0, 0, 0, 0, 0]",[C][C][=C][C][=C][Branch1_1][=N][C][C][=C][C][=C][Branch1_1][C][C][C][=C][Ring1][Branch1_3][C][=C][Ring1][=C].[C][C][=C][C][Branch1_1][C][C][=C][C][=C][Ring1][Branch1_3][N][C][Branch1_2][C][=O][C][=C][C][=C][Branch2_1][Ring1][O][C][Branch1_2][C][=O][C][=C][C][=C][C][Branch1_2][C][=O][N][Branch1_1][C][C][C][Branch1_2][C][=O][C][Ring1][Branch2_1][=C][Ring1][N][C][=C][Ring2][Ring1][Ring2][C][Ring2][Ring1][Branch2_1][=O],[C][C][Branch1_1][C][C][O],{[][<]*c1ccccc1[>][<]}{[>][<]C[>][<]}{[>][<]c1ccccc1[>][<]}{[>][<]Cc1ccccc1[>][<]}{[>][<]O=C1NC(=O)c2ccccc21[>][<]}{[>][<]C=O[>][<]}{[>][<]*N1C(=O)c2ccccc2C1=O[>][]},Cc1cc(c7ccc(Cc6ccc([*])cc6)cc7)ccc1n5c(=O)c4ccc(C(=O)c3ccc2c(=O)n([*])c(=O)c2c3)cc4c5=O.CC(C)O,[C][C][=C][C][=C][Branch1_1][=N][C][C][=C][C][=C][Branch1_1][C][C][C][=C][Ring1][Branch1_3][C][=C][Ring1][=C].[C][C][=C][C][Branch1_1][C][C][=C][C][=C][Ring1][Branch1_3][N][C][Branch1_2][C][=O][C][=C][C][=C][Branch2_1][Ring1][O][C][Branch1_2][C][=O][C][=C][C][=C][C][Branch1_2][C][=O][N][Branch1_1][C][C][C][Branch1_2][C][=O][C][Ring1][Branch2_1][=C][Ring1][N][C][=C][Ring2][Ring1][Ring2][C][Ring2][Ring1][Branch2_1][=O].[C][C][Branch1_1][C][C][O],{[][<]*c1ccccc1[>][<]}{[>][<]C[>][<]}{[>][<]c1ccccc1[>][<]}{[>][<]Cc1ccccc1[>][<]}{[>][<]O=C1NC(=O)c2ccccc21[>][<]}{[>][<]C=O[>][<]}{[>][<]*N1C(=O)c2ccccc2C1=O[>][]}.CC(C)O
39,p84,82.3,10.0,ipa,23.5,15.0,80,5.0,0.1159,1790.229885,Cc1cc(c7ccc(Cc6ccc([*])cc6)cc7)ccc1n5c(=O)c4ccc(C(=O)c3ccc2c(=O)n([*])c(=O)c2c3)cc4c5=O,CC(C)O,"[3, 1, 1, 5, 1, 0, 0, 0, 2, 5, 0, 0, 0, 0, 0]",[C][C][=C][C][=C][Branch1_1][=N][C][C][=C][C][=C][Branch1_1][C][C][C][=C][Ring1][Branch1_3][C][=C][Ring1][=C].[C][C][=C][C][Branch1_1][C][C][=C][C][=C][Ring1][Branch1_3][N][C][Branch1_2][C][=O][C][=C][C][=C][Branch2_1][Ring1][O][C][Branch1_2][C][=O][C][=C][C][=C][C][Branch1_2][C][=O][N][Branch1_1][C][C][C][Branch1_2][C][=O][C][Ring1][Branch2_1][=C][Ring1][N][C][=C][Ring2][Ring1][Ring2][C][Ring2][Ring1][Branch2_1][=O],[C][C][Branch1_1][C][C][O],{[][<]*c1ccccc1[>][<]}{[>][<]C[>][<]}{[>][<]c1ccccc1[>][<]}{[>][<]Cc1ccccc1[>][<]}{[>][<]O=C1NC(=O)c2ccccc21[>][<]}{[>][<]C=O[>][<]}{[>][<]*N1C(=O)c2ccccc2C1=O[>][]},Cc1cc(c7ccc(Cc6ccc([*])cc6)cc7)ccc1n5c(=O)c4ccc(C(=O)c3ccc2c(=O)n([*])c(=O)c2c3)cc4c5=O.CC(C)O,[C][C][=C][C][=C][Branch1_1][=N][C][C][=C][C][=C][Branch1_1][C][C][C][=C][Ring1][Branch1_3][C][=C][Ring1][=C].[C][C][=C][C][Branch1_1][C][C][=C][C][=C][Ring1][Branch1_3][N][C][Branch1_2][C][=O][C][=C][C][=C][Branch2_1][Ring1][O][C][Branch1_2][C][=O][C][=C][C][=C][C][Branch1_2][C][=O][N][Branch1_1][C][C][C][Branch1_2][C][=O][C][Ring1][Branch2_1][=C][Ring1][N][C][=C][Ring2][Ring1][Ring2][C][Ring2][Ring1][Branch2_1][=O].[C][C][Branch1_1][C][C][O],{[][<]*c1ccccc1[>][<]}{[>][<]C[>][<]}{[>][<]c1ccccc1[>][<]}{[>][<]Cc1ccccc1[>][<]}{[>][<]O=C1NC(=O)c2ccccc21[>][<]}{[>][<]C=O[>][<]}{[>][<]*N1C(=O)c2ccccc2C1=O[>][]}.CC(C)O
40,p84,82.3,10.0,ipa,23.5,15.0,100,5.0,0.2182,1488.505747,Cc1cc(c7ccc(Cc6ccc([*])cc6)cc7)ccc1n5c(=O)c4ccc(C(=O)c3ccc2c(=O)n([*])c(=O)c2c3)cc4c5=O,CC(C)O,"[3, 1, 1, 5, 1, 0, 0, 0, 2, 5, 0, 0, 0, 0, 0]",[C][C][=C][C][=C][Branch1_1][=N][C][C][=C][C][=C][Branch1_1][C][C][C][=C][Ring1][Branch1_3][C][=C][Ring1][=C].[C][C][=C][C][Branch1_1][C][C][=C][C][=C][Ring1][Branch1_3][N][C][Branch1_2][C][=O][C][=C][C][=C][Branch2_1][Ring1][O][C][Branch1_2][C][=O][C][=C][C][=C][C][Branch1_2][C][=O][N][Branch1_1][C][C][C][Branch1_2][C][=O][C][Ring1][Branch2_1][=C][Ring1][N][C][=C][Ring2][Ring1][Ring2][C][Ring2][Ring1][Branch2_1][=O],[C][C][Branch1_1][C][C][O],{[][<]*c1ccccc1[>][<]}{[>][<]C[>][<]}{[>][<]c1ccccc1[>][<]}{[>][<]Cc1ccccc1[>][<]}{[>][<]O=C1NC(=O)c2ccccc21[>][<]}{[>][<]C=O[>][<]}{[>][<]*N1C(=O)c2ccccc2C1=O[>][]},Cc1cc(c7ccc(Cc6ccc([*])cc6)cc7)ccc1n5c(=O)c4ccc(C(=O)c3ccc2c(=O)n([*])c(=O)c2c3)cc4c5=O.CC(C)O,[C][C][=C][C][=C][Branch1_1][=N][C][C][=C][C][=C][Branch1_1][C][C][C][=C][Ring1][Branch1_3][C][=C][Ring1][=C].[C][C][=C][C][Branch1_1][C][C][=C][C][=C][Ring1][Branch1_3][N][C][Branch1_2][C][=O][C][=C][C][=C][Branch2_1][Ring1][O][C][Branch1_2][C][=O][C][=C][C][=C][C][Branch1_2][C][=O][N][Branch1_1][C][C][C][Branch1_2][C][=O][C][Ring1][Branch2_1][=C][Ring1][N][C][=C][Ring2][Ring1][Ring2][C][Ring2][Ring1][Branch2_1][=O].[C][C][Branch1_1][C][C][O],{[][<]*c1ccccc1[>][<]}{[>][<]C[>][<]}{[>][<]c1ccccc1[>][<]}{[>][<]Cc1ccccc1[>][<]}{[>][<]O=C1NC(=O)c2ccccc21[>][<]}{[>][<]C=O[>][<]}{[>][<]*N1C(=O)c2ccccc2C1=O[>][]}.CC(C)O
41,p84,82.3,20.5,ipa,23.5,15.0,60,1.0,0.0496,5265.366081,Cc1cc(c7ccc(Cc6ccc([*])cc6)cc7)ccc1n5c(=O)c4ccc(C(=O)c3ccc2c(=O)n([*])c(=O)c2c3)cc4c5=O,CC(C)O,"[3, 1, 1, 5, 1, 0, 0, 0, 2, 5, 0, 0, 0, 0, 0]",[C][C][=C][C][=C][Branch1_1][=N][C][C][=C][C][=C][Branch1_1][C][C][C][=C][Ring1][Branch1_3][C][=C][Ring1][=C].[C][C][=C][C][Branch1_1][C][C][=C][C][=C][Ring1][Branch1_3][N][C][Branch1_2][C][=O][C][=C][C][=C][Branch2_1][Ring1][O][C][Branch1_2][C][=O][C][=C][C][=C][C][Branch1_2][C][=O][N][Branch1_1][C][C][C][Branch1_2][C][=O][C][Ring1][Branch2_1][=C][Ring1][N][C][=C][Ring2][Ring1][Ring2][C][Ring2][Ring1][Branch2_1][=O],[C][C][Branch1_1][C][C][O],{[][<]*c1ccccc1[>][<]}{[>][<]C[>][<]}{[>][<]c1ccccc1[>][<]}{[>][<]Cc1ccccc1[>][<]}{[>][<]O=C1NC(=O)c2ccccc21[>][<]}{[>][<]C=O[>][<]}{[>][<]*N1C(=O)c2ccccc2C1=O[>][]},Cc1cc(c7ccc(Cc6ccc([*])cc6)cc7)ccc1n5c(=O)c4ccc(C(=O)c3ccc2c(=O)n([*])c(=O)c2c3)cc4c5=O.CC(C)O,[C][C][=C][C][=C][Branch1_1][=N][C][C][=C][C][=C][Branch1_1][C][C][C][=C][Ring1][Branch1_3][C][=C][Ring1][=C].[C][C][=C][C][Branch1_1][C][C][=C][C][=C][Ring1][Branch1_3][N][C][Branch1_2][C][=O][C][=C][C][=C][Branch2_1][Ring1][O][C][Branch1_2][C][=O][C][=C][C][=C][C][Branch1_2][C][=O][N][Branch1_1][C][C][C][Branch1_2][C][=O][C][Ring1][Branch2_1][=C][Ring1][N][C][=C][Ring2][Ring1][Ring2][C][Ring2][Ring1][Branch2_1][=O].[C][C][Branch1_1][C][C][O],{[][<]*c1ccccc1[>][<]}{[>][<]C[>][<]}{[>][<]c1ccccc1[>][<]}{[>][<]Cc1ccccc1[>][<]}{[>][<]O=C1NC(=O)c2ccccc21[>][<]}{[>][<]C=O[>][<]}{[>][<]*N1C(=O)c2ccccc2C1=O[>][]}.CC(C)O
42,p84,82.3,20.5,ipa,23.5,15.0,70,1.0,0.0695,5265.366081,Cc1cc(c7ccc(Cc6ccc([*])cc6)cc7)ccc1n5c(=O)c4ccc(C(=O)c3ccc2c(=O)n([*])c(=O)c2c3)cc4c5=O,CC(C)O,"[3, 1, 1, 5, 1, 0, 0, 0, 2, 5, 0, 0, 0, 0, 0]",[C][C][=C][C][=C][Branch1_1][=N][C][C][=C][C][=C][Branch1_1][C][C][C][=C][Ring1][Branch1_3][C][=C][Ring1][=C].[C][C][=C][C][Branch1_1][C][C][=C][C][=C][Ring1][Branch1_3][N][C][Branch1_2][C][=O][C][=C][C][=C][Branch2_1][Ring1][O][C][Branch1_2][C][=O][C][=C][C][=C][C][Branch1_2][C][=O][N][Branch1_1][C][C][C][Branch1_2][C][=O][C][Ring1][Branch2_1][=C][Ring1][N][C][=C][Ring2][Ring1][Ring2][C][Ring2][Ring1][Branch2_1][=O],[C][C][Branch1_1][C][C][O],{[][<]*c1ccccc1[>][<]}{[>][<]C[>][<]}{[>][<]c1ccccc1[>][<]}{[>][<]Cc1ccccc1[>][<]}{[>][<]O=C1NC(=O)c2ccccc21[>][<]}{[>][<]C=O[>][<]}{[>][<]*N1C(=O)c2ccccc2C1=O[>][]},Cc1cc(c7ccc(Cc6ccc([*])cc6)cc7)ccc1n5c(=O)c4ccc(C(=O)c3ccc2c(=O)n([*])c(=O)c2c3)cc4c5=O.CC(C)O,[C][C][=C][C][=C][Branch1_1][=N][C][C][=C][C][=C][Branch1_1][C][C][C][=C][Ring1][Branch1_3][C][=C][Ring1][=C].[C][C][=C][C][Branch1_1][C][C][=C][C][=C][Ring1][Branch1_3][N][C][Branch1_2][C][=O][C][=C][C][=C][Branch2_1][Ring1][O][C][Branch1_2][C][=O][C][=C][C][=C][C][Branch1_2][C][=O][N][Branch1_1][C][C][C][Branch1_2][C][=O][C][Ring1][Branch2_1][=C][Ring1][N][C][=C][Ring2][Ring1][Ring2][C][Ring2][Ring1][Branch2_1][=O].[C][C][Branch1_1][C][C][O],{[][<]*c1ccccc1[>][<]}{[>][<]C[>][<]}{[>][<]c1ccccc1[>][<]}{[>][<]Cc1ccccc1[>][<]}{[>][<]O=C1NC(=O)c2ccccc21[>][<]}{[>][<]C=O[>][<]}{[>][<]*N1C(=O)c2ccccc2C1=O[>][]}.CC(C)O
43,p84,82.3,20.5,ipa,23.5,15.0,80,1.0,0.1072,5265.366081,Cc1cc(c7ccc(Cc6ccc([*])cc6)cc7)ccc1n5c(=O)c4ccc(C(=O)c3ccc2c(=O)n([*])c(=O)c2c3)cc4c5=O,CC(C)O,"[3, 1, 1, 5, 1, 0, 0, 0, 2, 5, 0, 0, 0, 0, 0]",[C][C][=C][C][=C][Branch1_1][=N][C][C][=C][C][=C][Branch1_1][C][C][C][=C][Ring1][Branch1_3][C][=C][Ring1][=C].[C][C][=C][C][Branch1_1][C][C][=C][C][=C][Ring1][Branch1_3][N][C][Branch1_2][C][=O][C][=C][C][=C][Branch2_1][Ring1][O][C][Branch1_2][C][=O][C][=C][C][=C][C][Branch1_2][C][=O][N][Branch1_1][C][C][C][Branch1_2][C][=O][C][Ring1][Branch2_1][=C][Ring1][N][C][=C][Ring2][Ring1][Ring2][C][Ring2][Ring1][Branch2_1][=O],[C][C][Branch1_1][C][C][O],{[][<]*c1ccccc1[>][<]}{[>][<]C[>][<]}{[>][<]c1ccccc1[>][<]}{[>][<]Cc1ccccc1[>][<]}{[>][<]O=C1NC(=O)c2ccccc21[>][<]}{[>][<]C=O[>][<]}{[>][<]*N1C(=O)c2ccccc2C1=O[>][]},Cc1cc(c7ccc(Cc6ccc([*])cc6)cc7)ccc1n5c(=O)c4ccc(C(=O)c3ccc2c(=O)n([*])c(=O)c2c3)cc4c5=O.CC(C)O,[C][C][=C][C][=C][Branch1_1][=N][C][C][=C][C][=C][Branch1_1][C][C][C][=C][Ring1][Branch1_3][C][=C][Ring1][=C].[C][C][=C][C][Branch1_1][C][C][=C][C][=C][Ring1][Branch1_3][N][C][Branch1_2][C][=O][C][=C][C][=C][Branch2_1][Ring1][O][C][Branch1_2][C][=O][C][=C][C][=C][C][Branch1_2][C][=O][N][Branch1_1][C][C][C][Branch1_2][C][=O][C][Ring1][Branch2_1][=C][Ring1][N][C][=C][Ring2][Ring1][Ring2][C][Ring2][Ring1][Branch2_1][=O].[C][C][Branch1_1][C][C][O],{[][<]*c1ccccc1[>][<]}{[>][<]C[>][<]}{[>][<]c1ccccc1[>][<]}{[>][<]Cc1ccccc1[>][<]}{[>][<]O=C1NC(=O)c2ccccc21[>][<]}{[>][<]C=O[>][<]}{[>][<]*N1C(=O)c2ccccc2C1=O[>][]}.CC(C)O
44,p84,82.3,20.5,ipa,23.5,15.0,90,1.0,0.1728,5265.366081,Cc1cc(c7ccc(Cc6ccc([*])cc6)cc7)ccc1n5c(=O)c4ccc(C(=O)c3ccc2c(=O)n([*])c(=O)c2c3)cc4c5=O,CC(C)O,"[3, 1, 1, 5, 1, 0, 0, 0, 2, 5, 0, 0, 0, 0, 0]",[C][C][=C][C][=C][Branch1_1][=N][C][C][=C][C][=C][Branch1_1][C][C][C][=C][Ring1][Branch1_3][C][=C][Ring1][=C].[C][C][=C][C][Branch1_1][C][C][=C][C][=C][Ring1][Branch1_3][N][C][Branch1_2][C][=O][C][=C][C][=C][Branch2_1][Ring1][O][C][Branch1_2][C][=O][C][=C][C][=C][C][Branch1_2][C][=O][N][Branch1_1][C][C][C][Branch1_2][C][=O][C][Ring1][Branch2_1][=C][Ring1][N][C][=C][Ring2][Ring1][Ring2][C][Ring2][Ring1][Branch2_1][=O],[C][C][Branch1_1][C][C][O],{[][<]*c1ccccc1[>][<]}{[>][<]C[>][<]}{[>][<]c1ccccc1[>][<]}{[>][<]Cc1ccccc1[>][<]}{[>][<]O=C1NC(=O)c2ccccc21[>][<]}{[>][<]C=O[>][<]}{[>][<]*N1C(=O)c2ccccc2C1=O[>][]},Cc1cc(c7ccc(Cc6ccc([*])cc6)cc7)ccc1n5c(=O)c4ccc(C(=O)c3ccc2c(=O)n([*])c(=O)c2c3)cc4c5=O.CC(C)O,[C][C][=C][C][=C][Branch1_1][=N][C][C][=C][C][=C][Branch1_1][C][C][C][=C][Ring1][Branch1_3][C][=C][Ring1][=C].[C][C][=C][C][Branch1_1][C][C][=C][C][=C][Ring1][Branch1_3][N][C][Branch1_2][C][=O][C][=C][C][=C][Branch2_1][Ring1][O][C][Branch1_2][C][=O][C][=C][C][=C][C][Branch1_2][C][=O][N][Branch1_1][C][C][C][Branch1_2][C][=O][C][Ring1][Branch2_1][=C][Ring1][N][C][=C][Ring2][Ring1][Ring2][C][Ring2][Ring1][Branch2_1][=O].[C][C][Branch1_1][C][C][O],{[][<]*c1ccccc1[>][<]}{[>][<]C[>][<]}{[>][<]c1ccccc1[>][<]}{[>][<]Cc1ccccc1[>][<]}{[>][<]O=C1NC(=O)c2ccccc21[>][<]}{[>][<]C=O[>][<]}{[>][<]*N1C(=O)c2ccccc2C1=O[>][]}.CC(C)O
46,pva,74.0,22.0,ipa,23.5,5.0,25,1.3,0.0299,5.108911,C(*)C(*)(O),CC(C)O,"[2, 1, 2, 0, 2, 0, 0, 0, 0, 0, 0, 0, 0, 0, 0]",[C][Branch1_1][C][C][C][Branch1_1][C][C][Branch1_1][C][O],[C][C][Branch1_1][C][C][O],{[][<]*C[>][<]}{[>][<]*CO[>][]},C(*)C(*)(O).CC(C)O,[C][Branch1_1][C][C][C][Branch1_1][C][C][Branch1_1][C][O].[C][C][Branch1_1][C][C][O],{[][<]*C[>][<]}{[>][<]*CO[>][]}.CC(C)O
47,pva,74.0,22.0,ipa,23.5,15.0,25,1.3,0.0304,5.643564,C(*)C(*)(O),CC(C)O,"[2, 1, 2, 0, 2, 0, 0, 0, 0, 0, 0, 0, 0, 0, 0]",[C][Branch1_1][C][C][C][Branch1_1][C][C][Branch1_1][C][O],[C][C][Branch1_1][C][C][O],{[][<]*C[>][<]}{[>][<]*CO[>][]},C(*)C(*)(O).CC(C)O,[C][Branch1_1][C][C][C][Branch1_1][C][C][Branch1_1][C][O].[C][C][Branch1_1][C][C][O],{[][<]*C[>][<]}{[>][<]*CO[>][]}.CC(C)O
48,pva,74.0,22.0,ipa,23.5,20.0,25,1.3,0.0561,8.19802,C(*)C(*)(O),CC(C)O,"[2, 1, 2, 0, 2, 0, 0, 0, 0, 0, 0, 0, 0, 0, 0]",[C][Branch1_1][C][C][C][Branch1_1][C][C][Branch1_1][C][O],[C][C][Branch1_1][C][C][O],{[][<]*C[>][<]}{[>][<]*CO[>][]},C(*)C(*)(O).CC(C)O,[C][Branch1_1][C][C][C][Branch1_1][C][C][Branch1_1][C][O].[C][C][Branch1_1][C][C][O],{[][<]*C[>][<]}{[>][<]*CO[>][]}.CC(C)O
49,pva,74.0,22.0,ipa,23.5,25.0,25,1.3,0.0967,11.049505,C(*)C(*)(O),CC(C)O,"[2, 1, 2, 0, 2, 0, 0, 0, 0, 0, 0, 0, 0, 0, 0]",[C][Branch1_1][C][C][C][Branch1_1][C][C][Branch1_1][C][O],[C][C][Branch1_1][C][C][O],{[][<]*C[>][<]}{[>][<]*CO[>][]},C(*)C(*)(O).CC(C)O,[C][Branch1_1][C][C][C][Branch1_1][C][C][Branch1_1][C][O].[C][C][Branch1_1][C][C][O],{[][<]*C[>][<]}{[>][<]*CO[>][]}.CC(C)O
50,pva,74.0,22.0,ipa,23.5,25.0,75,1.3,0.495,12.33663366,C(*)C(*)(O),CC(C)O,"[2, 1, 2, 0, 2, 0, 0, 0, 0, 0, 0, 0, 0, 0, 0]",[C][Branch1_1][C][C][C][Branch1_1][C][C][Branch1_1][C][O],[C][C][Branch1_1][C][C][O],{[][<]*C[>][<]}{[>][<]*CO[>][]},C(*)C(*)(O).CC(C)O,[C][Branch1_1][C][C][C][Branch1_1][C][C][Branch1_1][C][O].[C][C][Branch1_1][C][C][O],{[][<]*C[>][<]}{[>][<]*CO[>][]}.CC(C)O
51,pva,74.0,22.0,ipa,23.5,20.0,75,1.3,0.9406,2.98019802,C(*)C(*)(O),CC(C)O,"[2, 1, 2, 0, 2, 0, 0, 0, 0, 0, 0, 0, 0, 0, 0]",[C][Branch1_1][C][C][C][Branch1_1][C][C][Branch1_1][C][O],[C][C][Branch1_1][C][C][O],{[][<]*C[>][<]}{[>][<]*CO[>][]},C(*)C(*)(O).CC(C)O,[C][Branch1_1][C][C][C][Branch1_1][C][C][Branch1_1][C][O].[C][C][Branch1_1][C][C][O],{[][<]*C[>][<]}{[>][<]*CO[>][]}.CC(C)O
52,pva,74.0,22.0,ipa,23.5,15.0,75,1.3,2.1782,2.00990099,C(*)C(*)(O),CC(C)O,"[2, 1, 2, 0, 2, 0, 0, 0, 0, 0, 0, 0, 0, 0, 0]",[C][Branch1_1][C][C][C][Branch1_1][C][C][Branch1_1][C][O],[C][C][Branch1_1][C][C][O],{[][<]*C[>][<]}{[>][<]*CO[>][]},C(*)C(*)(O).CC(C)O,[C][Branch1_1][C][C][C][Branch1_1][C][C][Branch1_1][C][O].[C][C][Branch1_1][C][C][O],{[][<]*C[>][<]}{[>][<]*CO[>][]}.CC(C)O
53,pva,74.0,22.0,ipa,23.5,10.0,75,1.3,3.4653,1.663366337,C(*)C(*)(O),CC(C)O,"[2, 1, 2, 0, 2, 0, 0, 0, 0, 0, 0, 0, 0, 0, 0]",[C][Branch1_1][C][C][C][Branch1_1][C][C][Branch1_1][C][O],[C][C][Branch1_1][C][C][O],{[][<]*C[>][<]}{[>][<]*CO[>][]},C(*)C(*)(O).CC(C)O,[C][Branch1_1][C][C][C][Branch1_1][C][C][Branch1_1][C][O].[C][C][Branch1_1][C][C][O],{[][<]*C[>][<]}{[>][<]*CO[>][]}.CC(C)O
56,pva,74.0,10.0,ipa,23.5,12.5,30,0.06,0.138,59.0,C(*)C(*)(O),CC(C)O,"[2, 1, 2, 0, 2, 0, 0, 0, 0, 0, 0, 0, 0, 0, 0]",[C][Branch1_1][C][C][C][Branch1_1][C][C][Branch1_1][C][O],[C][C][Branch1_1][C][C][O],{[][<]*C[>][<]}{[>][<]*CO[>][]},C(*)C(*)(O).CC(C)O,[C][Branch1_1][C][C][C][Branch1_1][C][C][Branch1_1][C][O].[C][C][Branch1_1][C][C][O],{[][<]*C[>][<]}{[>][<]*CO[>][]}.CC(C)O
57,pva,74.0,10.0,ipa,23.5,15.0,30,0.06,0.145,46.0,C(*)C(*)(O),CC(C)O,"[2, 1, 2, 0, 2, 0, 0, 0, 0, 0, 0, 0, 0, 0, 0]",[C][Branch1_1][C][C][C][Branch1_1][C][C][Branch1_1][C][O],[C][C][Branch1_1][C][C][O],{[][<]*C[>][<]}{[>][<]*CO[>][]},C(*)C(*)(O).CC(C)O,[C][Branch1_1][C][C][C][Branch1_1][C][C][Branch1_1][C][O].[C][C][Branch1_1][C][C][O],{[][<]*C[>][<]}{[>][<]*CO[>][]}.CC(C)O
59,pva,74.0,22.0,ipa,23.5,10.0,40,3.0,0.0311,142.9,C(*)C(*)(O),CC(C)O,"[2, 1, 2, 0, 2, 0, 0, 0, 0, 0, 0, 0, 0, 0, 0]",[C][Branch1_1][C][C][C][Branch1_1][C][C][Branch1_1][C][O],[C][C][Branch1_1][C][C][O],{[][<]*C[>][<]}{[>][<]*CO[>][]},C(*)C(*)(O).CC(C)O,[C][Branch1_1][C][C][C][Branch1_1][C][C][Branch1_1][C][O].[C][C][Branch1_1][C][C][O],{[][<]*C[>][<]}{[>][<]*CO[>][]}.CC(C)O
60,pva,74.0,22.0,ethanol,26.5,8.0,50,3.0,0.0328,115.15,C(*)C(*)(O),CCO,"[1, 2, 1, 0, 2, 0, 0, 0, 0, 0, 0, 0, 0, 0, 0]",[C][Branch1_1][C][C][C][Branch1_1][C][C][Branch1_1][C][O],[C][C][O],{[][<]*C[>][<]}{[>][<]*CO[>][]},C(*)C(*)(O).CCO,[C][Branch1_1][C][C][C][Branch1_1][C][C][Branch1_1][C][O].[C][C][O],{[][<]*C[>][<]}{[>][<]*CO[>][]}.CCO
62,pva,74.0,22.0,ipa,23.5,8.0,50,3.0,0.0357,148.27,C(*)C(*)(O),CC(C)O,"[2, 1, 2, 0, 2, 0, 0, 0, 0, 0, 0, 0, 0, 0, 0]",[C][Branch1_1][C][C][C][Branch1_1][C][C][Branch1_1][C][O],[C][C][Branch1_1][C][C][O],{[][<]*C[>][<]}{[>][<]*CO[>][]},C(*)C(*)(O).CC(C)O,[C][Branch1_1][C][C][C][Branch1_1][C][C][Branch1_1][C][O].[C][C][Branch1_1][C][C][O],{[][<]*C[>][<]}{[>][<]*CO[>][]}.CC(C)O
64,pva,74.0,22.0,ipa,23.5,10.0,40,3.0,0.0419,137.44,C(*)C(*)(O),CC(C)O,"[2, 1, 2, 0, 2, 0, 0, 0, 0, 0, 0, 0, 0, 0, 0]",[C][Branch1_1][C][C][C][Branch1_1][C][C][Branch1_1][C][O],[C][C][Branch1_1][C][C][O],{[][<]*C[>][<]}{[>][<]*CO[>][]},C(*)C(*)(O).CC(C)O,[C][Branch1_1][C][C][C][Branch1_1][C][C][Branch1_1][C][O].[C][C][Branch1_1][C][C][O],{[][<]*C[>][<]}{[>][<]*CO[>][]}.CC(C)O
65,pva,74.0,22.0,ethanol,26.5,10.0,40,3.0,0.044,57.29,C(*)C(*)(O),CCO,"[1, 2, 1, 0, 2, 0, 0, 0, 0, 0, 0, 0, 0, 0, 0]",[C][Branch1_1][C][C][C][Branch1_1][C][C][Branch1_1][C][O],[C][C][O],{[][<]*C[>][<]}{[>][<]*CO[>][]},C(*)C(*)(O).CCO,[C][Branch1_1][C][C][C][Branch1_1][C][C][Branch1_1][C][O].[C][C][O],{[][<]*C[>][<]}{[>][<]*CO[>][]}.CCO