Index,Polymer,Contact_angle,Thickness_um,Solvent,Solvent_solubility_parameter_Mpa_sqrt,xw_wt_percent,Temp_C,Permeate_pressure_mbar,J_Total_flux_kg_m_2h_1,a_Separation_factor_wo,Polymer_SMILES,Solvent_SMILES,Sum_of_frags,Polymer_SELFIES,Solvent_SELFIES,Polymer_BigSMILES,PS_SMILES,PS_SELFIES,PS_BigSMILES
620,pva,76.8,22.0,ethanol,26.5,70.0,40,3.0,1.5644,16.993464,C(*)C(*)(O),CCO,"[1, 2, 1, 0, 2, 0, 0, 0, 0, 0, 0, 0, 0, 0, 0]",[C][Branch1_1][C][C][C][Branch1_1][C][C][Branch1_1][C][O],[C][C][O],{[][<]*C[>][<]}{[>][<]*CO[>][]},C(*)C(*)(O).CCO,[C][Branch1_1][C][C][C][Branch1_1][C][C][Branch1_1][C][O].[C][C][O],{[][<]*C[>][<]}{[>][<]*CO[>][]}.CCO
625,pva,74.0,22.0,ethanol,26.5,70.0,40,3.0,1.8422,12.026144,C(*)C(*)(O),CCO,"[1, 2, 1, 0, 2, 0, 0, 0, 0, 0, 0, 0, 0, 0, 0]",[C][Branch1_1][C][C][C][Branch1_1][C][C][Branch1_1][C][O],[C][C][O],{[][<]*C[>][<]}{[>][<]*CO[>][]},C(*)C(*)(O).CCO,[C][Branch1_1][C][C][C][Branch1_1][C][C][Branch1_1][C][O].[C][C][O],{[][<]*C[>][<]}{[>][<]*CO[>][]}.CCO
631,pva,76.2,22.0,ethanol,26.5,90.0,40,3.0,2.1585,6.770073,C(*)C(*)(O),CCO,"[1, 2, 1, 0, 2, 0, 0, 0, 0, 0, 0, 0, 0, 0, 0]",[C][Branch1_1][C][C][C][Branch1_1][C][C][Branch1_1][C][O],[C][C][O],{[][<]*C[>][<]}{[>][<]*CO[>][]},C(*)C(*)(O).CCO,[C][Branch1_1][C][C][C][Branch1_1][C][C][Branch1_1][C][O].[C][C][O],{[][<]*C[>][<]}{[>][<]*CO[>][]}.CCO
635,pva,74.0,22.0,ethanol,26.5,70.0,50,3.0,2.4433,13.375796,C(*)C(*)(O),CCO,"[1, 2, 1, 0, 2, 0, 0, 0, 0, 0, 0, 0, 0, 0, 0]",[C][Branch1_1][C][C][C][Branch1_1][C][C][Branch1_1][C][O],[C][C][O],{[][<]*C[>][<]}{[>][<]*CO[>][]},C(*)C(*)(O).CCO,[C][Branch1_1][C][C][C][Branch1_1][C][C][Branch1_1][C][O].[C][C][O],{[][<]*C[>][<]}{[>][<]*CO[>][]}.CCO
646,ptmsp,100.0,15.8,ethanol,26.5,95.0,50,0.04,1.7213,0.0449,C/C(*)=C(*)/[Si](C)(C)C,CCO,"[5, 1, 0, 0, 1, 0, 0, 0, 0, 0, 0, 1, 0, 1, 0]",[C][/C][Branch1_1][C][C][=C][Branch1_1][C][C][/Siexpl][Branch1_1][C][C][Branch1_1][C][C][C],[C][C][O],{[][<]*CC[>][<]}{[>][<]*C[Si](C)(C)C[>][]},C/C(*)=C(*)/[Si](C)(C)C.CCO,[C][/C][Branch1_1][C][C][=C][Branch1_1][C][C][/Siexpl][Branch1_1][C][C][Branch1_1][C][C][C].[C][C][O],{[][<]*CC[>][<]}{[>][<]*C[Si](C)(C)C[>][]}.CCO
655,ptmsp,100.0,2.02,ethanol,26.5,95.0,50,0.04,4.6721,0.066174,C/C(*)=C(*)/[Si](C)(C)C,CCO,"[5, 1, 0, 0, 1, 0, 0, 0, 0, 0, 0, 1, 0, 1, 0]",[C][/C][Branch1_1][C][C][=C][Branch1_1][C][C][/Siexpl][Branch1_1][C][C][Branch1_1][C][C][C],[C][C][O],{[][<]*CC[>][<]}{[>][<]*C[Si](C)(C)C[>][]},C/C(*)=C(*)/[Si](C)(C)C.CCO,[C][/C][Branch1_1][C][C][=C][Branch1_1][C][C][/Siexpl][Branch1_1][C][C][Branch1_1][C][C][C].[C][C][O],{[][<]*CC[>][<]}{[>][<]*C[Si](C)(C)C[>][]}.CCO
656,ptmsp,100.0,1.93,ethanol,26.5,95.0,50,0.04,4.9672,0.071743,C/C(*)=C(*)/[Si](C)(C)C,CCO,"[5, 1, 0, 0, 1, 0, 0, 0, 0, 0, 0, 1, 0, 1, 0]",[C][/C][Branch1_1][C][C][=C][Branch1_1][C][C][/Siexpl][Branch1_1][C][C][Branch1_1][C][C][C],[C][C][O],{[][<]*CC[>][<]}{[>][<]*C[Si](C)(C)C[>][]},C/C(*)=C(*)/[Si](C)(C)C.CCO,[C][/C][Branch1_1][C][C][=C][Branch1_1][C][C][/Siexpl][Branch1_1][C][C][Branch1_1][C][C][C].[C][C][O],{[][<]*CC[>][<]}{[>][<]*C[Si](C)(C)C[>][]}.CCO
662,pva,69.6,40.0,ethanol,26.5,10.0,60,3.5,0.1146,211.550152,C(*)C(*)(O),CCO,"[1, 2, 1, 0, 2, 0, 0, 0, 0, 0, 0, 0, 0, 0, 0]",[C][Branch1_1][C][C][C][Branch1_1][C][C][Branch1_1][C][O],[C][C][O],{[][<]*C[>][<]}{[>][<]*CO[>][]},C(*)C(*)(O).CCO,[C][Branch1_1][C][C][C][Branch1_1][C][C][Branch1_1][C][O].[C][C][O],{[][<]*C[>][<]}{[>][<]*CO[>][]}.CCO
664,pdms,103.72,8.9,ethanol,26.5,95.0,40,1.0,0.3812,0.175258,*O[Si](*)(C)C,CCO,"[3, 1, 0, 0, 1, 0, 0, 0, 0, 0, 1, 0, 0, 1, 0]",[Siexpl][Branch1_1][C][C][Branch1_1][C][C][Branch1_1][C][C][O][Branch1_1][C][C],[C][C][O],{[][<]*O[>][<]}{[>][<]*[Si](C)C[>][]},*O[Si](*)(C)C.CCO,[Siexpl][Branch1_1][C][C][Branch1_1][C][C][Branch1_1][C][C][O][Branch1_1][C][C].[C][C][O],{[][<]*O[>][<]}{[>][<]*[Si](C)C[>][]}.CCO
673,pva,59.0,45.0,ethanol,26.5,70.0,22,0.3,0.1868,9.326425,C(*)C(*)(O),CCO,"[1, 2, 1, 0, 2, 0, 0, 0, 0, 0, 0, 0, 0, 0, 0]",[C][Branch1_1][C][C][C][Branch1_1][C][C][Branch1_1][C][O],[C][C][O],{[][<]*C[>][<]}{[>][<]*CO[>][]},C(*)C(*)(O).CCO,[C][Branch1_1][C][C][C][Branch1_1][C][C][Branch1_1][C][O].[C][C][O],{[][<]*C[>][<]}{[>][<]*CO[>][]}.CCO
674,chitosan,55.1,30.0,ethanol,26.5,10.0,25,1.0,0.319,309.0,NC2C(O)C(OC1OC(CO)C(O(C[*]))C(O)C1N)C(CO)OC2(C[*]),CCO,"[1, 3, 10, 0, 5, 0, 2, 0, 0, 0, 4, 0, 0, 0, 0]",[N][C][C][Branch1_1][C][O][C][Branch2_1][Ring1][Branch2_1][O][C][O][C][Branch1_1][Ring1][C][O][C][Branch1_1][Branch1_1][O][Branch1_1][C][C][C][Branch1_1][C][O][C][Ring1][O][N][C][Branch1_1][Ring1][C][O][O][C][Ring2][Ring1][Branch1_2][Branch1_1][C][C],[C][C][O],{[][<]*C[>][<]}{[>][<]O[>][<]}{[>][<]NC1COC(CO)CC1O[>][<]}{[>][<]O[>][<]}{[>][<]NC1COC(CO)CC1O[>][<]}{[>][<]*C[>][]},NC2C(O)C(OC1OC(CO)C(O(C[*]))C(O)C1N)C(CO)OC2(C[*]).CCO,[N][C][C][Branch1_1][C][O][C][Branch2_1][Ring1][Branch2_1][O][C][O][C][Branch1_1][Ring1][C][O][C][Branch1_1][Branch1_1][O][Branch1_1][C][C][C][Branch1_1][C][O][C][Ring1][O][N][C][Branch1_1][Ring1][C][O][O][C][Ring2][Ring1][Branch1_2][Branch1_1][C][C].[C][C][O],{[][<]*C[>][<]}{[>][<]O[>][<]}{[>][<]NC1COC(CO)CC1O[>][<]}{[>][<]O[>][<]}{[>][<]NC1COC(CO)CC1O[>][<]}{[>][<]*C[>][]}.CCO
679,pdms,108.08219,9.5,ethanol,26.5,94.0,70,3.0,2.8299,0.121368,*O[Si](*)(C)C,CCO,"[3, 1, 0, 0, 1, 0, 0, 0, 0, 0, 1, 0, 0, 1, 0]",[Siexpl][Branch1_1][C][C][Branch1_1][C][C][Branch1_1][C][C][O][Branch1_1][C][C],[C][C][O],{[][<]*O[>][<]}{[>][<]*[Si](C)C[>][]},*O[Si](*)(C)C.CCO,[Siexpl][Branch1_1][C][C][Branch1_1][C][C][Branch1_1][C][C][O][Branch1_1][C][C].[C][C][O],{[][<]*O[>][<]}{[>][<]*[Si](C)C[>][]}.CCO