Index,Polymer,Contact_angle,Thickness_um,Solvent,Solvent_solubility_parameter_Mpa_sqrt,xw_wt_percent,Temp_C,Permeate_pressure_mbar,J_Total_flux_kg_m_2h_1,a_Separation_factor_wo,Polymer_SMILES,Solvent_SMILES,Sum_of_frags,Polymer_SELFIES,Solvent_SELFIES,Polymer_BigSMILES,PS_SMILES,PS_SELFIES,PS_BigSMILES
547,pdms,108.08219,95.0,acetic_acid,21.4,94.25,25,0.17,0.039485981,0.645252,*O[Si](*)(C)C,CC(=O)O,"[3, 0, 0, 1, 1, 0, 0, 0, 0, 0, 1, 0, 0, 1, 0]",[Siexpl][Branch1_1][C][C][Branch1_1][C][C][Branch1_1][C][C][O][Branch1_1][C][C],[C][C][Branch1_2][C][=O][O],{[][<]*O[>][<]}{[>][<]*[Si](C)C[>][]},*O[Si](*)(C)C.CC(=O)O,[Siexpl][Branch1_1][C][C][Branch1_1][C][C][Branch1_1][C][C][O][Branch1_1][C][C].[C][C][Branch1_2][C][=O][O],{[][<]*O[>][<]}{[>][<]*[Si](C)C[>][]}.CC(=O)O
549,pdms,108.08219,95.0,acetic_acid,21.4,89.72,25,0.17,0.050607477,0.669786,*O[Si](*)(C)C,CC(=O)O,"[3, 0, 0, 1, 1, 0, 0, 0, 0, 0, 1, 0, 0, 1, 0]",[Siexpl][Branch1_1][C][C][Branch1_1][C][C][Branch1_1][C][C][O][Branch1_1][C][C],[C][C][Branch1_2][C][=O][O],{[][<]*O[>][<]}{[>][<]*[Si](C)C[>][]},*O[Si](*)(C)C.CC(=O)O,[Siexpl][Branch1_1][C][C][Branch1_1][C][C][Branch1_1][C][C][O][Branch1_1][C][C].[C][C][Branch1_2][C][=O][O],{[][<]*O[>][<]}{[>][<]*[Si](C)C[>][]}.CC(=O)O
550,pdms,108.08219,95.0,acetic_acid,21.4,90.09,25,0.17,0.051261682,0.660133,*O[Si](*)(C)C,CC(=O)O,"[3, 0, 0, 1, 1, 0, 0, 0, 0, 0, 1, 0, 0, 1, 0]",[Siexpl][Branch1_1][C][C][Branch1_1][C][C][Branch1_1][C][C][O][Branch1_1][C][C],[C][C][Branch1_2][C][=O][O],{[][<]*O[>][<]}{[>][<]*[Si](C)C[>][]},*O[Si](*)(C)C.CC(=O)O,[Siexpl][Branch1_1][C][C][Branch1_1][C][C][Branch1_1][C][C][O][Branch1_1][C][C].[C][C][Branch1_2][C][=O][O],{[][<]*O[>][<]}{[>][<]*[Si](C)C[>][]}.CC(=O)O
553,pdms,108.08219,95.0,acetic_acid,21.4,90.0,35,0.17,0.057857143,0.739645,*O[Si](*)(C)C,CC(=O)O,"[3, 0, 0, 1, 1, 0, 0, 0, 0, 0, 1, 0, 0, 1, 0]",[Siexpl][Branch1_1][C][C][Branch1_1][C][C][Branch1_1][C][C][O][Branch1_1][C][C],[C][C][Branch1_2][C][=O][O],{[][<]*O[>][<]}{[>][<]*[Si](C)C[>][]},*O[Si](*)(C)C.CC(=O)O,[Siexpl][Branch1_1][C][C][Branch1_1][C][C][Branch1_1][C][C][O][Branch1_1][C][C].[C][C][Branch1_2][C][=O][O],{[][<]*O[>][<]}{[>][<]*[Si](C)C[>][]}.CC(=O)O
554,pdms,108.08219,95.0,acetic_acid,21.4,81.42,25,0.17,0.061728972,0.569793,*O[Si](*)(C)C,CC(=O)O,"[3, 0, 0, 1, 1, 0, 0, 0, 0, 0, 1, 0, 0, 1, 0]",[Siexpl][Branch1_1][C][C][Branch1_1][C][C][Branch1_1][C][C][O][Branch1_1][C][C],[C][C][Branch1_2][C][=O][O],{[][<]*O[>][<]}{[>][<]*[Si](C)C[>][]},*O[Si](*)(C)C.CC(=O)O,[Siexpl][Branch1_1][C][C][Branch1_1][C][C][Branch1_1][C][C][O][Branch1_1][C][C].[C][C][Branch1_2][C][=O][O],{[][<]*O[>][<]}{[>][<]*[Si](C)C[>][]}.CC(=O)O
555,pdms,108.08219,95.0,acetic_acid,21.4,80.28,25,0.17,0.064345794,0.584333,*O[Si](*)(C)C,CC(=O)O,"[3, 0, 0, 1, 1, 0, 0, 0, 0, 0, 1, 0, 0, 1, 0]",[Siexpl][Branch1_1][C][C][Branch1_1][C][C][Branch1_1][C][C][O][Branch1_1][C][C],[C][C][Branch1_2][C][=O][O],{[][<]*O[>][<]}{[>][<]*[Si](C)C[>][]},*O[Si](*)(C)C.CC(=O)O,[Siexpl][Branch1_1][C][C][Branch1_1][C][C][Branch1_1][C][C][O][Branch1_1][C][C].[C][C][Branch1_2][C][=O][O],{[][<]*O[>][<]}{[>][<]*[Si](C)C[>][]}.CC(=O)O
556,pdms,108.08219,95.0,acetic_acid,21.4,70.09,25,0.17,0.064672897,0.558673,*O[Si](*)(C)C,CC(=O)O,"[3, 0, 0, 1, 1, 0, 0, 0, 0, 0, 1, 0, 0, 1, 0]",[Siexpl][Branch1_1][C][C][Branch1_1][C][C][Branch1_1][C][C][O][Branch1_1][C][C],[C][C][Branch1_2][C][=O][O],{[][<]*O[>][<]}{[>][<]*[Si](C)C[>][]},*O[Si](*)(C)C.CC(=O)O,[Siexpl][Branch1_1][C][C][Branch1_1][C][C][Branch1_1][C][C][O][Branch1_1][C][C].[C][C][Branch1_2][C][=O][O],{[][<]*O[>][<]}{[>][<]*[Si](C)C[>][]}.CC(=O)O
558,pdms,108.08219,95.0,acetic_acid,21.4,70.72,25,0.17,0.071214953,0.55194,*O[Si](*)(C)C,CC(=O)O,"[3, 0, 0, 1, 1, 0, 0, 0, 0, 0, 1, 0, 0, 1, 0]",[Siexpl][Branch1_1][C][C][Branch1_1][C][C][Branch1_1][C][C][O][Branch1_1][C][C],[C][C][Branch1_2][C][=O][O],{[][<]*O[>][<]}{[>][<]*[Si](C)C[>][]},*O[Si](*)(C)C.CC(=O)O,[Siexpl][Branch1_1][C][C][Branch1_1][C][C][Branch1_1][C][C][O][Branch1_1][C][C].[C][C][Branch1_2][C][=O][O],{[][<]*O[>][<]}{[>][<]*[Si](C)C[>][]}.CC(=O)O
559,pdms,108.08219,95.0,acetic_acid,21.4,70.6,25,0.17,0.085607477,0.545368,*O[Si](*)(C)C,CC(=O)O,"[3, 0, 0, 1, 1, 0, 0, 0, 0, 0, 1, 0, 0, 1, 0]",[Siexpl][Branch1_1][C][C][Branch1_1][C][C][Branch1_1][C][C][O][Branch1_1][C][C],[C][C][Branch1_2][C][=O][O],{[][<]*O[>][<]}{[>][<]*[Si](C)C[>][]},*O[Si](*)(C)C.CC(=O)O,[Siexpl][Branch1_1][C][C][Branch1_1][C][C][Branch1_1][C][C][O][Branch1_1][C][C].[C][C][Branch1_2][C][=O][O],{[][<]*O[>][<]}{[>][<]*[Si](C)C[>][]}.CC(=O)O
561,pdms,108.08219,95.0,acetic_acid,21.4,59.91,25,0.17,0.092476636,0.549292,*O[Si](*)(C)C,CC(=O)O,"[3, 0, 0, 1, 1, 0, 0, 0, 0, 0, 1, 0, 0, 1, 0]",[Siexpl][Branch1_1][C][C][Branch1_1][C][C][Branch1_1][C][C][O][Branch1_1][C][C],[C][C][Branch1_2][C][=O][O],{[][<]*O[>][<]}{[>][<]*[Si](C)C[>][]},*O[Si](*)(C)C.CC(=O)O,[Siexpl][Branch1_1][C][C][Branch1_1][C][C][Branch1_1][C][C][O][Branch1_1][C][C].[C][C][Branch1_2][C][=O][O],{[][<]*O[>][<]}{[>][<]*[Si](C)C[>][]}.CC(=O)O
562,pdms,108.08219,95.0,acetic_acid,21.4,60.66,25,0.17,0.09411215,0.531446,*O[Si](*)(C)C,CC(=O)O,"[3, 0, 0, 1, 1, 0, 0, 0, 0, 0, 1, 0, 0, 1, 0]",[Siexpl][Branch1_1][C][C][Branch1_1][C][C][Branch1_1][C][C][O][Branch1_1][C][C],[C][C][Branch1_2][C][=O][O],{[][<]*O[>][<]}{[>][<]*[Si](C)C[>][]},*O[Si](*)(C)C.CC(=O)O,[Siexpl][Branch1_1][C][C][Branch1_1][C][C][Branch1_1][C][C][O][Branch1_1][C][C].[C][C][Branch1_2][C][=O][O],{[][<]*O[>][<]}{[>][<]*[Si](C)C[>][]}.CC(=O)O
563,pdms,108.08219,95.0,acetic_acid,21.4,59.4,25,0.17,0.099345794,0.494707,*O[Si](*)(C)C,CC(=O)O,"[3, 0, 0, 1, 1, 0, 0, 0, 0, 0, 1, 0, 0, 1, 0]",[Siexpl][Branch1_1][C][C][Branch1_1][C][C][Branch1_1][C][C][O][Branch1_1][C][C],[C][C][Branch1_2][C][=O][O],{[][<]*O[>][<]}{[>][<]*[Si](C)C[>][]},*O[Si](*)(C)C.CC(=O)O,[Siexpl][Branch1_1][C][C][Branch1_1][C][C][Branch1_1][C][C][O][Branch1_1][C][C].[C][C][Branch1_2][C][=O][O],{[][<]*O[>][<]}{[>][<]*[Si](C)C[>][]}.CC(=O)O
564,pdms,108.08219,95.0,acetic_acid,21.4,90.0,55,0.17,0.116785714,0.680087,*O[Si](*)(C)C,CC(=O)O,"[3, 0, 0, 1, 1, 0, 0, 0, 0, 0, 1, 0, 0, 1, 0]",[Siexpl][Branch1_1][C][C][Branch1_1][C][C][Branch1_1][C][C][O][Branch1_1][C][C],[C][C][Branch1_2][C][=O][O],{[][<]*O[>][<]}{[>][<]*[Si](C)C[>][]},*O[Si](*)(C)C.CC(=O)O,[Siexpl][Branch1_1][C][C][Branch1_1][C][C][Branch1_1][C][C][O][Branch1_1][C][C].[C][C][Branch1_2][C][=O][O],{[][<]*O[>][<]}{[>][<]*[Si](C)C[>][]}.CC(=O)O
567,ppsu,92.2,16.0,ethanol,26.5,15.0,23,1.0,0.004128686,558.309038,O=S(=O)(c1ccc([*])cc1)c4ccc(Oc3ccc(c2ccc(O[*])cc2)cc3)cc4,CCO,"[1, 1, 0, 0, 1, 0, 0, 0, 0, 4, 2, 0, 0, 0, 0]",[O][=S][Branch1_2][C][=O][Branch1_1][N][C][=C][C][=C][Branch1_1][C][C][C][=C][Ring1][Branch1_3][C][=C][C][=C][Branch2_1][Ring1][Branch2_3][O][C][=C][C][=C][Branch1_1][#C][C][=C][C][=C][Branch1_1][Branch1_1][O][Branch1_1][C][C][C][=C][Ring1][Branch2_1][C][=C][Ring1][=C][C][=C][Ring2][Ring1][Branch1_1],[C][C][O],{[][<]*c1ccccc1[>][<]}{[>][<]O=S=O[>][<]}{[>][<]c1ccccc1[>][<]}{[>][<]O[>][<]}{[>][<]c1ccccc1[>][<]}{[>][<]c1ccccc1[>][<]}{[>][<]*O[>][]},O=S(=O)(c1ccc([*])cc1)c4ccc(Oc3ccc(c2ccc(O[*])cc2)cc3)cc4.CCO,[O][=S][Branch1_2][C][=O][Branch1_1][N][C][=C][C][=C][Branch1_1][C][C][C][=C][Ring1][Branch1_3][C][=C][C][=C][Branch2_1][Ring1][Branch2_3][O][C][=C][C][=C][Branch1_1][#C][C][=C][C][=C][Branch1_1][Branch1_1][O][Branch1_1][C][C][C][=C][Ring1][Branch2_1][C][=C][Ring1][=C][C][=C][Ring2][Ring1][Branch1_1].[C][C][O],{[][<]*c1ccccc1[>][<]}{[>][<]O=S=O[>][<]}{[>][<]c1ccccc1[>][<]}{[>][<]O[>][<]}{[>][<]c1ccccc1[>][<]}{[>][<]c1ccccc1[>][<]}{[>][<]*O[>][]}.CCO
569,ppsu,92.2,16.0,ethanol,26.5,15.0,60,1.0,0.025522788,225.947522,O=S(=O)(c1ccc([*])cc1)c4ccc(Oc3ccc(c2ccc(O[*])cc2)cc3)cc4,CCO,"[1, 1, 0, 0, 1, 0, 0, 0, 0, 4, 2, 0, 0, 0, 0]",[O][=S][Branch1_2][C][=O][Branch1_1][N][C][=C][C][=C][Branch1_1][C][C][C][=C][Ring1][Branch1_3][C][=C][C][=C][Branch2_1][Ring1][Branch2_3][O][C][=C][C][=C][Branch1_1][#C][C][=C][C][=C][Branch1_1][Branch1_1][O][Branch1_1][C][C][C][=C][Ring1][Branch2_1][C][=C][Ring1][=C][C][=C][Ring2][Ring1][Branch1_1],[C][C][O],{[][<]*c1ccccc1[>][<]}{[>][<]O=S=O[>][<]}{[>][<]c1ccccc1[>][<]}{[>][<]O[>][<]}{[>][<]c1ccccc1[>][<]}{[>][<]c1ccccc1[>][<]}{[>][<]*O[>][]},O=S(=O)(c1ccc([*])cc1)c4ccc(Oc3ccc(c2ccc(O[*])cc2)cc3)cc4.CCO,[O][=S][Branch1_2][C][=O][Branch1_1][N][C][=C][C][=C][Branch1_1][C][C][C][=C][Ring1][Branch1_3][C][=C][C][=C][Branch2_1][Ring1][Branch2_3][O][C][=C][C][=C][Branch1_1][#C][C][=C][C][=C][Branch1_1][Branch1_1][O][Branch1_1][C][C][C][=C][Ring1][Branch2_1][C][=C][Ring1][=C][C][=C][Ring2][Ring1][Branch1_1].[C][C][O],{[][<]*c1ccccc1[>][<]}{[>][<]O=S=O[>][<]}{[>][<]c1ccccc1[>][<]}{[>][<]O[>][<]}{[>][<]c1ccccc1[>][<]}{[>][<]c1ccccc1[>][<]}{[>][<]*O[>][]}.CCO
570,ppsu,92.2,16.0,ipa,23.5,15.0,60,1.0,0.026029412,1623.5,O=S(=O)(c1ccc([*])cc1)c4ccc(Oc3ccc(c2ccc(O[*])cc2)cc3)cc4,CC(C)O,"[2, 0, 1, 0, 1, 0, 0, 0, 0, 4, 2, 0, 0, 0, 0]",[O][=S][Branch1_2][C][=O][Branch1_1][N][C][=C][C][=C][Branch1_1][C][C][C][=C][Ring1][Branch1_3][C][=C][C][=C][Branch2_1][Ring1][Branch2_3][O][C][=C][C][=C][Branch1_1][#C][C][=C][C][=C][Branch1_1][Branch1_1][O][Branch1_1][C][C][C][=C][Ring1][Branch2_1][C][=C][Ring1][=C][C][=C][Ring2][Ring1][Branch1_1],[C][C][Branch1_1][C][C][O],{[][<]*c1ccccc1[>][<]}{[>][<]O=S=O[>][<]}{[>][<]c1ccccc1[>][<]}{[>][<]O[>][<]}{[>][<]c1ccccc1[>][<]}{[>][<]c1ccccc1[>][<]}{[>][<]*O[>][]},O=S(=O)(c1ccc([*])cc1)c4ccc(Oc3ccc(c2ccc(O[*])cc2)cc3)cc4.CC(C)O,[O][=S][Branch1_2][C][=O][Branch1_1][N][C][=C][C][=C][Branch1_1][C][C][C][=C][Ring1][Branch1_3][C][=C][C][=C][Branch2_1][Ring1][Branch2_3][O][C][=C][C][=C][Branch1_1][#C][C][=C][C][=C][Branch1_1][Branch1_1][O][Branch1_1][C][C][C][=C][Ring1][Branch2_1][C][=C][Ring1][=C][C][=C][Ring2][Ring1][Branch1_1].[C][C][Branch1_1][C][C][O],{[][<]*c1ccccc1[>][<]}{[>][<]O=S=O[>][<]}{[>][<]c1ccccc1[>][<]}{[>][<]O[>][<]}{[>][<]c1ccccc1[>][<]}{[>][<]c1ccccc1[>][<]}{[>][<]*O[>][]}.CC(C)O
571,ppsu,92.2,16.0,methanol,29.6,15.0,60,1.0,0.027205882,8.561863,O=S(=O)(c1ccc([*])cc1)c4ccc(Oc3ccc(c2ccc(O[*])cc2)cc3)cc4,CO,"[1, 0, 0, 0, 1, 0, 0, 0, 0, 4, 2, 0, 0, 0, 0]",[O][=S][Branch1_2][C][=O][Branch1_1][N][C][=C][C][=C][Branch1_1][C][C][C][=C][Ring1][Branch1_3][C][=C][C][=C][Branch2_1][Ring1][Branch2_3][O][C][=C][C][=C][Branch1_1][#C][C][=C][C][=C][Branch1_1][Branch1_1][O][Branch1_1][C][C][C][=C][Ring1][Branch2_1][C][=C][Ring1][=C][C][=C][Ring2][Ring1][Branch1_1],[C][O],{[][<]*c1ccccc1[>][<]}{[>][<]O=S=O[>][<]}{[>][<]c1ccccc1[>][<]}{[>][<]O[>][<]}{[>][<]c1ccccc1[>][<]}{[>][<]c1ccccc1[>][<]}{[>][<]*O[>][]},O=S(=O)(c1ccc([*])cc1)c4ccc(Oc3ccc(c2ccc(O[*])cc2)cc3)cc4.CO,[O][=S][Branch1_2][C][=O][Branch1_1][N][C][=C][C][=C][Branch1_1][C][C][C][=C][Ring1][Branch1_3][C][=C][C][=C][Branch2_1][Ring1][Branch2_3][O][C][=C][C][=C][Branch1_1][#C][C][=C][C][=C][Branch1_1][Branch1_1][O][Branch1_1][C][C][C][=C][Ring1][Branch2_1][C][=C][Ring1][=C][C][=C][Ring2][Ring1][Branch1_1].[C][O],{[][<]*c1ccccc1[>][<]}{[>][<]O=S=O[>][<]}{[>][<]c1ccccc1[>][<]}{[>][<]O[>][<]}{[>][<]c1ccccc1[>][<]}{[>][<]c1ccccc1[>][<]}{[>][<]*O[>][]}.CO
572,ppsu,92.2,16.0,n-butanol,23.1,15.0,60,1.0,0.028382353,3252.666667,O=S(=O)(c1ccc([*])cc1)c4ccc(Oc3ccc(c2ccc(O[*])cc2)cc3)cc4,CCCCO,"[1, 3, 0, 0, 1, 0, 0, 0, 0, 4, 2, 0, 0, 0, 0]",[O][=S][Branch1_2][C][=O][Branch1_1][N][C][=C][C][=C][Branch1_1][C][C][C][=C][Ring1][Branch1_3][C][=C][C][=C][Branch2_1][Ring1][Branch2_3][O][C][=C][C][=C][Branch1_1][#C][C][=C][C][=C][Branch1_1][Branch1_1][O][Branch1_1][C][C][C][=C][Ring1][Branch2_1][C][=C][Ring1][=C][C][=C][Ring2][Ring1][Branch1_1],[C][C][C][C][O],{[][<]*c1ccccc1[>][<]}{[>][<]O=S=O[>][<]}{[>][<]c1ccccc1[>][<]}{[>][<]O[>][<]}{[>][<]c1ccccc1[>][<]}{[>][<]c1ccccc1[>][<]}{[>][<]*O[>][]},O=S(=O)(c1ccc([*])cc1)c4ccc(Oc3ccc(c2ccc(O[*])cc2)cc3)cc4.CCCCO,[O][=S][Branch1_2][C][=O][Branch1_1][N][C][=C][C][=C][Branch1_1][C][C][C][=C][Ring1][Branch1_3][C][=C][C][=C][Branch2_1][Ring1][Branch2_3][O][C][=C][C][=C][Branch1_1][#C][C][=C][C][=C][Branch1_1][Branch1_1][O][Branch1_1][C][C][C][=C][Ring1][Branch2_1][C][=C][Ring1][=C][C][=C][Ring2][Ring1][Branch1_1].[C][C][C][C][O],{[][<]*c1ccccc1[>][<]}{[>][<]O=S=O[>][<]}{[>][<]c1ccccc1[>][<]}{[>][<]O[>][<]}{[>][<]c1ccccc1[>][<]}{[>][<]c1ccccc1[>][<]}{[>][<]*O[>][]}.CCCCO
573,ppsu,92.2,16.0,ethanol,26.5,15.0,75,1.0,0.047104558,201.457726,O=S(=O)(c1ccc([*])cc1)c4ccc(Oc3ccc(c2ccc(O[*])cc2)cc3)cc4,CCO,"[1, 1, 0, 0, 1, 0, 0, 0, 0, 4, 2, 0, 0, 0, 0]",[O][=S][Branch1_2][C][=O][Branch1_1][N][C][=C][C][=C][Branch1_1][C][C][C][=C][Ring1][Branch1_3][C][=C][C][=C][Branch2_1][Ring1][Branch2_3][O][C][=C][C][=C][Branch1_1][#C][C][=C][C][=C][Branch1_1][Branch1_1][O][Branch1_1][C][C][C][=C][Ring1][Branch2_1][C][=C][Ring1][=C][C][=C][Ring2][Ring1][Branch1_1],[C][C][O],{[][<]*c1ccccc1[>][<]}{[>][<]O=S=O[>][<]}{[>][<]c1ccccc1[>][<]}{[>][<]O[>][<]}{[>][<]c1ccccc1[>][<]}{[>][<]c1ccccc1[>][<]}{[>][<]*O[>][]},O=S(=O)(c1ccc([*])cc1)c4ccc(Oc3ccc(c2ccc(O[*])cc2)cc3)cc4.CCO,[O][=S][Branch1_2][C][=O][Branch1_1][N][C][=C][C][=C][Branch1_1][C][C][C][=C][Ring1][Branch1_3][C][=C][C][=C][Branch2_1][Ring1][Branch2_3][O][C][=C][C][=C][Branch1_1][#C][C][=C][C][=C][Branch1_1][Branch1_1][O][Branch1_1][C][C][C][=C][Ring1][Branch2_1][C][=C][Ring1][=C][C][=C][Ring2][Ring1][Branch1_1].[C][C][O],{[][<]*c1ccccc1[>][<]}{[>][<]O=S=O[>][<]}{[>][<]c1ccccc1[>][<]}{[>][<]O[>][<]}{[>][<]c1ccccc1[>][<]}{[>][<]c1ccccc1[>][<]}{[>][<]*O[>][]}.CCO
575,alginate,72.0,40.0,ethanol,26.5,4.0,30,5.0,0.021,55.0,O=C(O)C1OC(C[*])C(O)C(O)C1O(C[*]),CCO,"[1, 1, 10, 2, 7, 0, 0, 0, 0, 0, 4, 0, 0, 0, 0]",[O][=C][Branch1_1][C][O][C][O][C][Branch1_1][C][C][C][Branch1_1][C][O][C][Branch1_1][C][O][C][Ring1][Branch2_2][O][Branch1_1][C][C].[O][=C][Branch1_1][C][O][C][O][C][Branch1_1][C][C][C][Branch1_1][C][O][C][Branch1_1][C][O][C][Ring1][Branch2_2][O][Branch1_1][C][C],[C][C][O],{[][<]*C[>][<]}{[>][<]O=C(O)C1CC(O)C(O)CO1[>][<]}{[>][<]O[>][<]}{[>][<]*C[>][]},O=C(O)C1OC(C[*])C(O)C(O)C1O(C[*]).CCO,[O][=C][Branch1_1][C][O][C][O][C][Branch1_1][C][C][C][Branch1_1][C][O][C][Branch1_1][C][O][C][Ring1][Branch2_2][O][Branch1_1][C][C].[O][=C][Branch1_1][C][O][C][O][C][Branch1_1][C][C][C][Branch1_1][C][O][C][Branch1_1][C][O][C][Ring1][Branch2_2][O][Branch1_1][C][C].[C][C][O],{[][<]*C[>][<]}{[>][<]O=C(O)C1CC(O)C(O)CO1[>][<]}{[>][<]O[>][<]}{[>][<]*C[>][]}.CCO
578,alginate,37.37,45.0,ethanol,26.5,5.0,50,3.0,0.049,560.2,O=C(O)C1OC(C[*])C(O)C(O)C1O(C[*]),CCO,"[1, 1, 10, 2, 7, 0, 0, 0, 0, 0, 4, 0, 0, 0, 0]",[O][=C][Branch1_1][C][O][C][O][C][Branch1_1][C][C][C][Branch1_1][C][O][C][Branch1_1][C][O][C][Ring1][Branch2_2][O][Branch1_1][C][C].[O][=C][Branch1_1][C][O][C][O][C][Branch1_1][C][C][C][Branch1_1][C][O][C][Branch1_1][C][O][C][Ring1][Branch2_2][O][Branch1_1][C][C],[C][C][O],{[][<]*C[>][<]}{[>][<]O=C(O)C1CC(O)C(O)CO1[>][<]}{[>][<]O[>][<]}{[>][<]*C[>][]},O=C(O)C1OC(C[*])C(O)C(O)C1O(C[*]).CCO,[O][=C][Branch1_1][C][O][C][O][C][Branch1_1][C][C][C][Branch1_1][C][O][C][Branch1_1][C][O][C][Ring1][Branch2_2][O][Branch1_1][C][C].[O][=C][Branch1_1][C][O][C][O][C][Branch1_1][C][C][C][Branch1_1][C][O][C][Branch1_1][C][O][C][Ring1][Branch2_2][O][Branch1_1][C][C].[C][C][O],{[][<]*C[>][<]}{[>][<]O=C(O)C1CC(O)C(O)CO1[>][<]}{[>][<]O[>][<]}{[>][<]*C[>][]}.CCO
579,alginate,37.37,45.0,ethanol,26.5,10.0,50,3.0,0.095,687.76,O=C(O)C1OC(C[*])C(O)C(O)C1O(C[*]),CCO,"[1, 1, 10, 2, 7, 0, 0, 0, 0, 0, 4, 0, 0, 0, 0]",[O][=C][Branch1_1][C][O][C][O][C][Branch1_1][C][C][C][Branch1_1][C][O][C][Branch1_1][C][O][C][Ring1][Branch2_2][O][Branch1_1][C][C].[O][=C][Branch1_1][C][O][C][O][C][Branch1_1][C][C][C][Branch1_1][C][O][C][Branch1_1][C][O][C][Ring1][Branch2_2][O][Branch1_1][C][C],[C][C][O],{[][<]*C[>][<]}{[>][<]O=C(O)C1CC(O)C(O)CO1[>][<]}{[>][<]O[>][<]}{[>][<]*C[>][]},O=C(O)C1OC(C[*])C(O)C(O)C1O(C[*]).CCO,[O][=C][Branch1_1][C][O][C][O][C][Branch1_1][C][C][C][Branch1_1][C][O][C][Branch1_1][C][O][C][Ring1][Branch2_2][O][Branch1_1][C][C].[O][=C][Branch1_1][C][O][C][O][C][Branch1_1][C][C][C][Branch1_1][C][O][C][Branch1_1][C][O][C][Ring1][Branch2_2][O][Branch1_1][C][C].[C][C][O],{[][<]*C[>][<]}{[>][<]O=C(O)C1CC(O)C(O)CO1[>][<]}{[>][<]O[>][<]}{[>][<]*C[>][]}.CCO
580,alginate,37.37,45.0,ethanol,26.5,15.0,50,3.0,0.174,613.78,O=C(O)C1OC(C[*])C(O)C(O)C1O(C[*]),CCO,"[1, 1, 10, 2, 7, 0, 0, 0, 0, 0, 4, 0, 0, 0, 0]",[O][=C][Branch1_1][C][O][C][O][C][Branch1_1][C][C][C][Branch1_1][C][O][C][Branch1_1][C][O][C][Ring1][Branch2_2][O][Branch1_1][C][C].[O][=C][Branch1_1][C][O][C][O][C][Branch1_1][C][C][C][Branch1_1][C][O][C][Branch1_1][C][O][C][Ring1][Branch2_2][O][Branch1_1][C][C],[C][C][O],{[][<]*C[>][<]}{[>][<]O=C(O)C1CC(O)C(O)CO1[>][<]}{[>][<]O[>][<]}{[>][<]*C[>][]},O=C(O)C1OC(C[*])C(O)C(O)C1O(C[*]).CCO,[O][=C][Branch1_1][C][O][C][O][C][Branch1_1][C][C][C][Branch1_1][C][O][C][Branch1_1][C][O][C][Ring1][Branch2_2][O][Branch1_1][C][C].[O][=C][Branch1_1][C][O][C][O][C][Branch1_1][C][C][C][Branch1_1][C][O][C][Branch1_1][C][O][C][Ring1][Branch2_2][O][Branch1_1][C][C].[C][C][O],{[][<]*C[>][<]}{[>][<]O=C(O)C1CC(O)C(O)CO1[>][<]}{[>][<]O[>][<]}{[>][<]*C[>][]}.CCO
581,alginate,37.37,45.0,ipa,23.5,5.0,50,3.0,0.217,1384.54,O=C(O)C1OC(C[*])C(O)C(O)C1O(C[*]),CC(C)O,"[2, 0, 11, 2, 7, 0, 0, 0, 0, 0, 4, 0, 0, 0, 0]",[O][=C][Branch1_1][C][O][C][O][C][Branch1_1][C][C][C][Branch1_1][C][O][C][Branch1_1][C][O][C][Ring1][Branch2_2][O][Branch1_1][C][C].[O][=C][Branch1_1][C][O][C][O][C][Branch1_1][C][C][C][Branch1_1][C][O][C][Branch1_1][C][O][C][Ring1][Branch2_2][O][Branch1_1][C][C],[C][C][Branch1_1][C][C][O],{[][<]*C[>][<]}{[>][<]O=C(O)C1CC(O)C(O)CO1[>][<]}{[>][<]O[>][<]}{[>][<]*C[>][]},O=C(O)C1OC(C[*])C(O)C(O)C1O(C[*]).CC(C)O,[O][=C][Branch1_1][C][O][C][O][C][Branch1_1][C][C][C][Branch1_1][C][O][C][Branch1_1][C][O][C][Ring1][Branch2_2][O][Branch1_1][C][C].[O][=C][Branch1_1][C][O][C][O][C][Branch1_1][C][C][C][Branch1_1][C][O][C][Branch1_1][C][O][C][Ring1][Branch2_2][O][Branch1_1][C][C].[C][C][Branch1_1][C][C][O],{[][<]*C[>][<]}{[>][<]O=C(O)C1CC(O)C(O)CO1[>][<]}{[>][<]O[>][<]}{[>][<]*C[>][]}.CC(C)O
582,alginate,37.37,45.0,ethanol,26.5,10.0,40,3.0,0.229,289.98,O=C(O)C1OC(C[*])C(O)C(O)C1O(C[*]),CCO,"[1, 1, 10, 2, 7, 0, 0, 0, 0, 0, 4, 0, 0, 0, 0]",[O][=C][Branch1_1][C][O][C][O][C][Branch1_1][C][C][C][Branch1_1][C][O][C][Branch1_1][C][O][C][Ring1][Branch2_2][O][Branch1_1][C][C].[O][=C][Branch1_1][C][O][C][O][C][Branch1_1][C][C][C][Branch1_1][C][O][C][Branch1_1][C][O][C][Ring1][Branch2_2][O][Branch1_1][C][C],[C][C][O],{[][<]*C[>][<]}{[>][<]O=C(O)C1CC(O)C(O)CO1[>][<]}{[>][<]O[>][<]}{[>][<]*C[>][]},O=C(O)C1OC(C[*])C(O)C(O)C1O(C[*]).CCO,[O][=C][Branch1_1][C][O][C][O][C][Branch1_1][C][C][C][Branch1_1][C][O][C][Branch1_1][C][O][C][Ring1][Branch2_2][O][Branch1_1][C][C].[O][=C][Branch1_1][C][O][C][O][C][Branch1_1][C][C][C][Branch1_1][C][O][C][Branch1_1][C][O][C][Ring1][Branch2_2][O][Branch1_1][C][C].[C][C][O],{[][<]*C[>][<]}{[>][<]O=C(O)C1CC(O)C(O)CO1[>][<]}{[>][<]O[>][<]}{[>][<]*C[>][]}.CCO
584,alginate,37.37,45.0,ethanol,26.5,10.0,60,3.0,0.275,1000.0,O=C(O)C1OC(C[*])C(O)C(O)C1O(C[*]),CCO,"[1, 1, 10, 2, 7, 0, 0, 0, 0, 0, 4, 0, 0, 0, 0]",[O][=C][Branch1_1][C][O][C][O][C][Branch1_1][C][C][C][Branch1_1][C][O][C][Branch1_1][C][O][C][Ring1][Branch2_2][O][Branch1_1][C][C].[O][=C][Branch1_1][C][O][C][O][C][Branch1_1][C][C][C][Branch1_1][C][O][C][Branch1_1][C][O][C][Ring1][Branch2_2][O][Branch1_1][C][C],[C][C][O],{[][<]*C[>][<]}{[>][<]O=C(O)C1CC(O)C(O)CO1[>][<]}{[>][<]O[>][<]}{[>][<]*C[>][]},O=C(O)C1OC(C[*])C(O)C(O)C1O(C[*]).CCO,[O][=C][Branch1_1][C][O][C][O][C][Branch1_1][C][C][C][Branch1_1][C][O][C][Branch1_1][C][O][C][Ring1][Branch2_2][O][Branch1_1][C][C].[O][=C][Branch1_1][C][O][C][O][C][Branch1_1][C][C][C][Branch1_1][C][O][C][Branch1_1][C][O][C][Ring1][Branch2_2][O][Branch1_1][C][C].[C][C][O],{[][<]*C[>][<]}{[>][<]O=C(O)C1CC(O)C(O)CO1[>][<]}{[>][<]O[>][<]}{[>][<]*C[>][]}.CCO