Index,Polymer,Contact_angle,Thickness_um,Solvent,Solvent_solubility_parameter_Mpa_sqrt,xw_wt_percent,Temp_C,Permeate_pressure_mbar,J_Total_flux_kg_m_2h_1,a_Separation_factor_wo,Polymer_SMILES,Solvent_SMILES,Sum_of_frags,Polymer_SELFIES,Solvent_SELFIES,Polymer_BigSMILES,PS_SMILES,PS_SELFIES,PS_BigSMILES
66,pva,74.0,22.0,ipa,23.5,12.5,50,3.0,0.0484,95.29,C(*)C(*)(O),CC(C)O,"[2, 1, 2, 0, 2, 0, 0, 0, 0, 0, 0, 0, 0, 0, 0]",[C][Branch1_1][C][C][C][Branch1_1][C][C][Branch1_1][C][O],[C][C][Branch1_1][C][C][O],{[][<]*C[>][<]}{[>][<]*CO[>][]},C(*)C(*)(O).CC(C)O,[C][Branch1_1][C][C][C][Branch1_1][C][C][Branch1_1][C][O].[C][C][Branch1_1][C][C][O],{[][<]*C[>][<]}{[>][<]*CO[>][]}.CC(C)O
67,pva,74.0,22.0,ipa,23.5,12.5,50,3.0,0.0487,98.1,C(*)C(*)(O),CC(C)O,"[2, 1, 2, 0, 2, 0, 0, 0, 0, 0, 0, 0, 0, 0, 0]",[C][Branch1_1][C][C][C][Branch1_1][C][C][Branch1_1][C][O],[C][C][Branch1_1][C][C][O],{[][<]*C[>][<]}{[>][<]*CO[>][]},C(*)C(*)(O).CC(C)O,[C][Branch1_1][C][C][C][Branch1_1][C][C][Branch1_1][C][O].[C][C][Branch1_1][C][C][O],{[][<]*C[>][<]}{[>][<]*CO[>][]}.CC(C)O
68,pva,74.0,22.0,ethanol,26.5,12.5,33,3.0,0.0489,78.27,C(*)C(*)(O),CCO,"[1, 2, 1, 0, 2, 0, 0, 0, 0, 0, 0, 0, 0, 0, 0]",[C][Branch1_1][C][C][C][Branch1_1][C][C][Branch1_1][C][O],[C][C][O],{[][<]*C[>][<]}{[>][<]*CO[>][]},C(*)C(*)(O).CCO,[C][Branch1_1][C][C][C][Branch1_1][C][C][Branch1_1][C][O].[C][C][O],{[][<]*C[>][<]}{[>][<]*CO[>][]}.CCO
69,pva,74.0,22.0,ethanol,26.5,12.5,50,3.0,0.052,80.66,C(*)C(*)(O),CCO,"[1, 2, 1, 0, 2, 0, 0, 0, 0, 0, 0, 0, 0, 0, 0]",[C][Branch1_1][C][C][C][Branch1_1][C][C][Branch1_1][C][O],[C][C][O],{[][<]*C[>][<]}{[>][<]*CO[>][]},C(*)C(*)(O).CCO,[C][Branch1_1][C][C][C][Branch1_1][C][C][Branch1_1][C][O].[C][C][O],{[][<]*C[>][<]}{[>][<]*CO[>][]}.CCO
70,pva,74.0,22.0,ethanol,26.5,10.0,60,3.0,0.0522,90.23,C(*)C(*)(O),CCO,"[1, 2, 1, 0, 2, 0, 0, 0, 0, 0, 0, 0, 0, 0, 0]",[C][Branch1_1][C][C][C][Branch1_1][C][C][Branch1_1][C][O],[C][C][O],{[][<]*C[>][<]}{[>][<]*CO[>][]},C(*)C(*)(O).CCO,[C][Branch1_1][C][C][C][Branch1_1][C][C][Branch1_1][C][O].[C][C][O],{[][<]*C[>][<]}{[>][<]*CO[>][]}.CCO
72,pva,74.0,22.0,ipa,23.5,12.5,50,3.0,0.0535,92.23,C(*)C(*)(O),CC(C)O,"[2, 1, 2, 0, 2, 0, 0, 0, 0, 0, 0, 0, 0, 0, 0]",[C][Branch1_1][C][C][C][Branch1_1][C][C][Branch1_1][C][O],[C][C][Branch1_1][C][C][O],{[][<]*C[>][<]}{[>][<]*CO[>][]},C(*)C(*)(O).CC(C)O,[C][Branch1_1][C][C][C][Branch1_1][C][C][Branch1_1][C][O].[C][C][Branch1_1][C][C][O],{[][<]*C[>][<]}{[>][<]*CO[>][]}.CC(C)O
73,pva,74.0,22.0,ipa,23.5,12.5,33,3.0,0.0538,120.46,C(*)C(*)(O),CC(C)O,"[2, 1, 2, 0, 2, 0, 0, 0, 0, 0, 0, 0, 0, 0, 0]",[C][Branch1_1][C][C][C][Branch1_1][C][C][Branch1_1][C][O],[C][C][Branch1_1][C][C][O],{[][<]*C[>][<]}{[>][<]*CO[>][]},C(*)C(*)(O).CC(C)O,[C][Branch1_1][C][C][C][Branch1_1][C][C][Branch1_1][C][O].[C][C][Branch1_1][C][C][O],{[][<]*C[>][<]}{[>][<]*CO[>][]}.CC(C)O
74,pva,74.0,22.0,ipa,23.5,12.5,50,3.0,0.0546,100.58,C(*)C(*)(O),CC(C)O,"[2, 1, 2, 0, 2, 0, 0, 0, 0, 0, 0, 0, 0, 0, 0]",[C][Branch1_1][C][C][C][Branch1_1][C][C][Branch1_1][C][O],[C][C][Branch1_1][C][C][O],{[][<]*C[>][<]}{[>][<]*CO[>][]},C(*)C(*)(O).CC(C)O,[C][Branch1_1][C][C][C][Branch1_1][C][C][Branch1_1][C][O].[C][C][Branch1_1][C][C][O],{[][<]*C[>][<]}{[>][<]*CO[>][]}.CC(C)O
75,pva,74.0,22.0,ipa,23.5,12.5,50,3.0,0.0548,98.09,C(*)C(*)(O),CC(C)O,"[2, 1, 2, 0, 2, 0, 0, 0, 0, 0, 0, 0, 0, 0, 0]",[C][Branch1_1][C][C][C][Branch1_1][C][C][Branch1_1][C][O],[C][C][Branch1_1][C][C][O],{[][<]*C[>][<]}{[>][<]*CO[>][]},C(*)C(*)(O).CC(C)O,[C][Branch1_1][C][C][C][Branch1_1][C][C][Branch1_1][C][O].[C][C][Branch1_1][C][C][O],{[][<]*C[>][<]}{[>][<]*CO[>][]}.CC(C)O
76,pva,74.0,22.0,ipa,23.5,12.5,50,3.0,0.055,96.37,C(*)C(*)(O),CC(C)O,"[2, 1, 2, 0, 2, 0, 0, 0, 0, 0, 0, 0, 0, 0, 0]",[C][Branch1_1][C][C][C][Branch1_1][C][C][Branch1_1][C][O],[C][C][Branch1_1][C][C][O],{[][<]*C[>][<]}{[>][<]*CO[>][]},C(*)C(*)(O).CC(C)O,[C][Branch1_1][C][C][C][Branch1_1][C][C][Branch1_1][C][O].[C][C][Branch1_1][C][C][O],{[][<]*C[>][<]}{[>][<]*CO[>][]}.CC(C)O
77,pva,74.0,22.0,ethanol,26.5,12.5,50,3.0,0.0559,82.22,C(*)C(*)(O),CCO,"[1, 2, 1, 0, 2, 0, 0, 0, 0, 0, 0, 0, 0, 0, 0]",[C][Branch1_1][C][C][C][Branch1_1][C][C][Branch1_1][C][O],[C][C][O],{[][<]*C[>][<]}{[>][<]*CO[>][]},C(*)C(*)(O).CCO,[C][Branch1_1][C][C][C][Branch1_1][C][C][Branch1_1][C][O].[C][C][O],{[][<]*C[>][<]}{[>][<]*CO[>][]}.CCO
78,pva,74.0,22.0,ethanol,26.5,12.5,50,3.0,0.0571,87.19,C(*)C(*)(O),CCO,"[1, 2, 1, 0, 2, 0, 0, 0, 0, 0, 0, 0, 0, 0, 0]",[C][Branch1_1][C][C][C][Branch1_1][C][C][Branch1_1][C][O],[C][C][O],{[][<]*C[>][<]}{[>][<]*CO[>][]},C(*)C(*)(O).CCO,[C][Branch1_1][C][C][C][Branch1_1][C][C][Branch1_1][C][O].[C][C][O],{[][<]*C[>][<]}{[>][<]*CO[>][]}.CCO
79,pva,74.0,22.0,ethanol,26.5,12.5,50,3.0,0.0571,75.07,C(*)C(*)(O),CCO,"[1, 2, 1, 0, 2, 0, 0, 0, 0, 0, 0, 0, 0, 0, 0]",[C][Branch1_1][C][C][C][Branch1_1][C][C][Branch1_1][C][O],[C][C][O],{[][<]*C[>][<]}{[>][<]*CO[>][]},C(*)C(*)(O).CCO,[C][Branch1_1][C][C][C][Branch1_1][C][C][Branch1_1][C][O].[C][C][O],{[][<]*C[>][<]}{[>][<]*CO[>][]}.CCO
80,pva,74.0,22.0,ethanol,26.5,12.5,50,3.0,0.058,90.14,C(*)C(*)(O),CCO,"[1, 2, 1, 0, 2, 0, 0, 0, 0, 0, 0, 0, 0, 0, 0]",[C][Branch1_1][C][C][C][Branch1_1][C][C][Branch1_1][C][O],[C][C][O],{[][<]*C[>][<]}{[>][<]*CO[>][]},C(*)C(*)(O).CCO,[C][Branch1_1][C][C][C][Branch1_1][C][C][Branch1_1][C][O].[C][C][O],{[][<]*C[>][<]}{[>][<]*CO[>][]}.CCO
81,pva,74.0,22.0,ipa,23.5,12.5,50,3.0,0.0587,95.27,C(*)C(*)(O),CC(C)O,"[2, 1, 2, 0, 2, 0, 0, 0, 0, 0, 0, 0, 0, 0, 0]",[C][Branch1_1][C][C][C][Branch1_1][C][C][Branch1_1][C][O],[C][C][Branch1_1][C][C][O],{[][<]*C[>][<]}{[>][<]*CO[>][]},C(*)C(*)(O).CC(C)O,[C][Branch1_1][C][C][C][Branch1_1][C][C][Branch1_1][C][O].[C][C][Branch1_1][C][C][O],{[][<]*C[>][<]}{[>][<]*CO[>][]}.CC(C)O
82,pva,74.0,22.0,ipa,23.5,15.0,40,3.0,0.0602,111.77,C(*)C(*)(O),CC(C)O,"[2, 1, 2, 0, 2, 0, 0, 0, 0, 0, 0, 0, 0, 0, 0]",[C][Branch1_1][C][C][C][Branch1_1][C][C][Branch1_1][C][O],[C][C][Branch1_1][C][C][O],{[][<]*C[>][<]}{[>][<]*CO[>][]},C(*)C(*)(O).CC(C)O,[C][Branch1_1][C][C][C][Branch1_1][C][C][Branch1_1][C][O].[C][C][Branch1_1][C][C][O],{[][<]*C[>][<]}{[>][<]*CO[>][]}.CC(C)O
83,pva,74.0,22.0,ethanol,26.5,15.0,40,3.0,0.0619,98.82,C(*)C(*)(O),CCO,"[1, 2, 1, 0, 2, 0, 0, 0, 0, 0, 0, 0, 0, 0, 0]",[C][Branch1_1][C][C][C][Branch1_1][C][C][Branch1_1][C][O],[C][C][O],{[][<]*C[>][<]}{[>][<]*CO[>][]},C(*)C(*)(O).CCO,[C][Branch1_1][C][C][C][Branch1_1][C][C][Branch1_1][C][O].[C][C][O],{[][<]*C[>][<]}{[>][<]*CO[>][]}.CCO
84,pva,74.0,22.0,ethanol,26.5,12.5,50,3.0,0.0621,84.37,C(*)C(*)(O),CCO,"[1, 2, 1, 0, 2, 0, 0, 0, 0, 0, 0, 0, 0, 0, 0]",[C][Branch1_1][C][C][C][Branch1_1][C][C][Branch1_1][C][O],[C][C][O],{[][<]*C[>][<]}{[>][<]*CO[>][]},C(*)C(*)(O).CCO,[C][Branch1_1][C][C][C][Branch1_1][C][C][Branch1_1][C][O].[C][C][O],{[][<]*C[>][<]}{[>][<]*CO[>][]}.CCO
85,pva,74.0,22.0,ethanol,26.5,12.5,50,3.0,0.0658,79.37,C(*)C(*)(O),CCO,"[1, 2, 1, 0, 2, 0, 0, 0, 0, 0, 0, 0, 0, 0, 0]",[C][Branch1_1][C][C][C][Branch1_1][C][C][Branch1_1][C][O],[C][C][O],{[][<]*C[>][<]}{[>][<]*CO[>][]},C(*)C(*)(O).CCO,[C][Branch1_1][C][C][C][Branch1_1][C][C][Branch1_1][C][O].[C][C][O],{[][<]*C[>][<]}{[>][<]*CO[>][]}.CCO
86,pva,74.0,22.0,ethanol,26.5,10.0,60,3.0,0.0678,105.93,C(*)C(*)(O),CCO,"[1, 2, 1, 0, 2, 0, 0, 0, 0, 0, 0, 0, 0, 0, 0]",[C][Branch1_1][C][C][C][Branch1_1][C][C][Branch1_1][C][O],[C][C][O],{[][<]*C[>][<]}{[>][<]*CO[>][]},C(*)C(*)(O).CCO,[C][Branch1_1][C][C][C][Branch1_1][C][C][Branch1_1][C][O].[C][C][O],{[][<]*C[>][<]}{[>][<]*CO[>][]}.CCO
88,pva,74.0,22.0,ethanol,26.5,12.5,50,3.0,0.0688,71.06,C(*)C(*)(O),CCO,"[1, 2, 1, 0, 2, 0, 0, 0, 0, 0, 0, 0, 0, 0, 0]",[C][Branch1_1][C][C][C][Branch1_1][C][C][Branch1_1][C][O],[C][C][O],{[][<]*C[>][<]}{[>][<]*CO[>][]},C(*)C(*)(O).CCO,[C][Branch1_1][C][C][C][Branch1_1][C][C][Branch1_1][C][O].[C][C][O],{[][<]*C[>][<]}{[>][<]*CO[>][]}.CCO
89,pva,74.0,22.0,ipa,23.5,15.0,40,3.0,0.0711,105.89,C(*)C(*)(O),CC(C)O,"[2, 1, 2, 0, 2, 0, 0, 0, 0, 0, 0, 0, 0, 0, 0]",[C][Branch1_1][C][C][C][Branch1_1][C][C][Branch1_1][C][O],[C][C][Branch1_1][C][C][O],{[][<]*C[>][<]}{[>][<]*CO[>][]},C(*)C(*)(O).CC(C)O,[C][Branch1_1][C][C][C][Branch1_1][C][C][Branch1_1][C][O].[C][C][Branch1_1][C][C][O],{[][<]*C[>][<]}{[>][<]*CO[>][]}.CC(C)O
90,pva,74.0,22.0,ipa,23.5,17.0,50,3.0,0.0764,103.3,C(*)C(*)(O),CC(C)O,"[2, 1, 2, 0, 2, 0, 0, 0, 0, 0, 0, 0, 0, 0, 0]",[C][Branch1_1][C][C][C][Branch1_1][C][C][Branch1_1][C][O],[C][C][Branch1_1][C][C][O],{[][<]*C[>][<]}{[>][<]*CO[>][]},C(*)C(*)(O).CC(C)O,[C][Branch1_1][C][C][C][Branch1_1][C][C][Branch1_1][C][O].[C][C][Branch1_1][C][C][O],{[][<]*C[>][<]}{[>][<]*CO[>][]}.CC(C)O
91,pva,74.0,22.0,ethanol,26.5,17.0,50,3.0,0.0846,88.26,C(*)C(*)(O),CCO,"[1, 2, 1, 0, 2, 0, 0, 0, 0, 0, 0, 0, 0, 0, 0]",[C][Branch1_1][C][C][C][Branch1_1][C][C][Branch1_1][C][O],[C][C][O],{[][<]*C[>][<]}{[>][<]*CO[>][]},C(*)C(*)(O).CCO,[C][Branch1_1][C][C][C][Branch1_1][C][C][Branch1_1][C][O].[C][C][O],{[][<]*C[>][<]}{[>][<]*CO[>][]}.CCO
92,pva,74.0,22.0,ipa,23.5,15.0,60,3.0,0.0853,69.11,C(*)C(*)(O),CC(C)O,"[2, 1, 2, 0, 2, 0, 0, 0, 0, 0, 0, 0, 0, 0, 0]",[C][Branch1_1][C][C][C][Branch1_1][C][C][Branch1_1][C][O],[C][C][Branch1_1][C][C][O],{[][<]*C[>][<]}{[>][<]*CO[>][]},C(*)C(*)(O).CC(C)O,[C][Branch1_1][C][C][C][Branch1_1][C][C][Branch1_1][C][O].[C][C][Branch1_1][C][C][O],{[][<]*C[>][<]}{[>][<]*CO[>][]}.CC(C)O
93,pva,74.0,22.0,ipa,23.5,15.0,60,3.0,0.0916,88.81,C(*)C(*)(O),CC(C)O,"[2, 1, 2, 0, 2, 0, 0, 0, 0, 0, 0, 0, 0, 0, 0]",[C][Branch1_1][C][C][C][Branch1_1][C][C][Branch1_1][C][O],[C][C][Branch1_1][C][C][O],{[][<]*C[>][<]}{[>][<]*CO[>][]},C(*)C(*)(O).CC(C)O,[C][Branch1_1][C][C][C][Branch1_1][C][C][Branch1_1][C][O].[C][C][Branch1_1][C][C][O],{[][<]*C[>][<]}{[>][<]*CO[>][]}.CC(C)O
94,pva,74.0,22.0,ipa,23.5,10.0,60,3.0,0.0977,87.81,C(*)C(*)(O),CC(C)O,"[2, 1, 2, 0, 2, 0, 0, 0, 0, 0, 0, 0, 0, 0, 0]",[C][Branch1_1][C][C][C][Branch1_1][C][C][Branch1_1][C][O],[C][C][Branch1_1][C][C][O],{[][<]*C[>][<]}{[>][<]*CO[>][]},C(*)C(*)(O).CC(C)O,[C][Branch1_1][C][C][C][Branch1_1][C][C][Branch1_1][C][O].[C][C][Branch1_1][C][C][O],{[][<]*C[>][<]}{[>][<]*CO[>][]}.CC(C)O
96,pva,74.0,22.0,ethanol,26.5,15.0,60,3.0,0.1084,41.1,C(*)C(*)(O),CCO,"[1, 2, 1, 0, 2, 0, 0, 0, 0, 0, 0, 0, 0, 0, 0]",[C][Branch1_1][C][C][C][Branch1_1][C][C][Branch1_1][C][O],[C][C][O],{[][<]*C[>][<]}{[>][<]*CO[>][]},C(*)C(*)(O).CCO,[C][Branch1_1][C][C][C][Branch1_1][C][C][Branch1_1][C][O].[C][C][O],{[][<]*C[>][<]}{[>][<]*CO[>][]}.CCO
98,pva,74.0,22.0,ipa,23.5,12.5,67,3.0,0.1139,60.83,C(*)C(*)(O),CC(C)O,"[2, 1, 2, 0, 2, 0, 0, 0, 0, 0, 0, 0, 0, 0, 0]",[C][Branch1_1][C][C][C][Branch1_1][C][C][Branch1_1][C][O],[C][C][Branch1_1][C][C][O],{[][<]*C[>][<]}{[>][<]*CO[>][]},C(*)C(*)(O).CC(C)O,[C][Branch1_1][C][C][C][Branch1_1][C][C][Branch1_1][C][O].[C][C][Branch1_1][C][C][O],{[][<]*C[>][<]}{[>][<]*CO[>][]}.CC(C)O
99,pva,74.0,25.0,ipa,23.5,10.0,30,2.0,0.1505,125.0,C(*)C(*)(O),CC(C)O,"[2, 1, 2, 0, 2, 0, 0, 0, 0, 0, 0, 0, 0, 0, 0]",[C][Branch1_1][C][C][C][Branch1_1][C][C][Branch1_1][C][O],[C][C][Branch1_1][C][C][O],{[][<]*C[>][<]}{[>][<]*CO[>][]},C(*)C(*)(O).CC(C)O,[C][Branch1_1][C][C][C][Branch1_1][C][C][Branch1_1][C][O].[C][C][Branch1_1][C][C][O],{[][<]*C[>][<]}{[>][<]*CO[>][]}.CC(C)O
100,pva,74.0,50.0,ipa,23.5,10.0,30,6.7,0.1324,163.418803,C(*)C(*)(O),CC(C)O,"[2, 1, 2, 0, 2, 0, 0, 0, 0, 0, 0, 0, 0, 0, 0]",[C][Branch1_1][C][C][C][Branch1_1][C][C][Branch1_1][C][O],[C][C][Branch1_1][C][C][O],{[][<]*C[>][<]}{[>][<]*CO[>][]},C(*)C(*)(O).CC(C)O,[C][Branch1_1][C][C][C][Branch1_1][C][C][Branch1_1][C][O].[C][C][Branch1_1][C][C][O],{[][<]*C[>][<]}{[>][<]*CO[>][]}.CC(C)O
101,pva,74.0,50.0,ipa,23.5,10.0,40,0.06,0.1556,55.0,C(*)C(*)(O),CC(C)O,"[2, 1, 2, 0, 2, 0, 0, 0, 0, 0, 0, 0, 0, 0, 0]",[C][Branch1_1][C][C][C][Branch1_1][C][C][Branch1_1][C][O],[C][C][Branch1_1][C][C][O],{[][<]*C[>][<]}{[>][<]*CO[>][]},C(*)C(*)(O).CC(C)O,[C][Branch1_1][C][C][C][Branch1_1][C][C][Branch1_1][C][O].[C][C][Branch1_1][C][C][O],{[][<]*C[>][<]}{[>][<]*CO[>][]}.CC(C)O
102,pva,74.0,50.0,ipa,23.5,10.0,50,0.06,0.1886,36.0,C(*)C(*)(O),CC(C)O,"[2, 1, 2, 0, 2, 0, 0, 0, 0, 0, 0, 0, 0, 0, 0]",[C][Branch1_1][C][C][C][Branch1_1][C][C][Branch1_1][C][O],[C][C][Branch1_1][C][C][O],{[][<]*C[>][<]}{[>][<]*CO[>][]},C(*)C(*)(O).CC(C)O,[C][Branch1_1][C][C][C][Branch1_1][C][C][Branch1_1][C][O].[C][C][Branch1_1][C][C][O],{[][<]*C[>][<]}{[>][<]*CO[>][]}.CC(C)O
103,pva,74.0,50.0,ipa,23.5,10.0,60,0.06,0.2,23.0,C(*)C(*)(O),CC(C)O,"[2, 1, 2, 0, 2, 0, 0, 0, 0, 0, 0, 0, 0, 0, 0]",[C][Branch1_1][C][C][C][Branch1_1][C][C][Branch1_1][C][O],[C][C][Branch1_1][C][C][O],{[][<]*C[>][<]}{[>][<]*CO[>][]},C(*)C(*)(O).CC(C)O,[C][Branch1_1][C][C][C][Branch1_1][C][C][Branch1_1][C][O].[C][C][Branch1_1][C][C][O],{[][<]*C[>][<]}{[>][<]*CO[>][]}.CC(C)O
104,chitosan,55.1,45.0,ipa,23.5,5.0,60,3.0,0.127,3124.966463,NC2C(O)C(OC1OC(CO)C(O(C[*]))C(O)C1N)C(CO)OC2(C[*]),CC(C)O,"[2, 2, 11, 0, 5, 0, 2, 0, 0, 0, 4, 0, 0, 0, 0]",[N][C][C][Branch1_1][C][O][C][Branch2_1][Ring1][Branch2_1][O][C][O][C][Branch1_1][Ring1][C][O][C][Branch1_1][Branch1_1][O][Branch1_1][C][C][C][Branch1_1][C][O][C][Ring1][O][N][C][Branch1_1][Ring1][C][O][O][C][Ring2][Ring1][Branch1_2][Branch1_1][C][C],[C][C][Branch1_1][C][C][O],{[][<]*C[>][<]}{[>][<]O[>][<]}{[>][<]NC1COC(CO)CC1O[>][<]}{[>][<]O[>][<]}{[>][<]NC1COC(CO)CC1O[>][<]}{[>][<]*C[>][]},NC2C(O)C(OC1OC(CO)C(O(C[*]))C(O)C1N)C(CO)OC2(C[*]).CC(C)O,[N][C][C][Branch1_1][C][O][C][Branch2_1][Ring1][Branch2_1][O][C][O][C][Branch1_1][Ring1][C][O][C][Branch1_1][Branch1_1][O][Branch1_1][C][C][C][Branch1_1][C][O][C][Ring1][O][N][C][Branch1_1][Ring1][C][O][O][C][Ring2][Ring1][Branch1_2][Branch1_1][C][C].[C][C][Branch1_1][C][C][O],{[][<]*C[>][<]}{[>][<]O[>][<]}{[>][<]NC1COC(CO)CC1O[>][<]}{[>][<]O[>][<]}{[>][<]NC1COC(CO)CC1O[>][<]}{[>][<]*C[>][]}.CC(C)O
105,chitosan,55.1,45.0,ethanol,26.5,5.0,60,3.0,0.1438,444.991431,NC2C(O)C(OC1OC(CO)C(O(C[*]))C(O)C1N)C(CO)OC2(C[*]),CCO,"[1, 3, 10, 0, 5, 0, 2, 0, 0, 0, 4, 0, 0, 0, 0]",[N][C][C][Branch1_1][C][O][C][Branch2_1][Ring1][Branch2_1][O][C][O][C][Branch1_1][Ring1][C][O][C][Branch1_1][Branch1_1][O][Branch1_1][C][C][C][Branch1_1][C][O][C][Ring1][O][N][C][Branch1_1][Ring1][C][O][O][C][Ring2][Ring1][Branch1_2][Branch1_1][C][C],[C][C][O],{[][<]*C[>][<]}{[>][<]O[>][<]}{[>][<]NC1COC(CO)CC1O[>][<]}{[>][<]O[>][<]}{[>][<]NC1COC(CO)CC1O[>][<]}{[>][<]*C[>][]},NC2C(O)C(OC1OC(CO)C(O(C[*]))C(O)C1N)C(CO)OC2(C[*]).CCO,[N][C][C][Branch1_1][C][O][C][Branch2_1][Ring1][Branch2_1][O][C][O][C][Branch1_1][Ring1][C][O][C][Branch1_1][Branch1_1][O][Branch1_1][C][C][C][Branch1_1][C][O][C][Ring1][O][N][C][Branch1_1][Ring1][C][O][O][C][Ring2][Ring1][Branch1_2][Branch1_1][C][C].[C][C][O],{[][<]*C[>][<]}{[>][<]O[>][<]}{[>][<]NC1COC(CO)CC1O[>][<]}{[>][<]O[>][<]}{[>][<]NC1COC(CO)CC1O[>][<]}{[>][<]*C[>][]}.CCO
106,alginate,37.37,45.0,ethanol,26.5,5.0,60,3.0,0.2195,5587.953034,O=C(O)C1OC(C[*])C(O)C(O)C1O(C[*]),CCO,"[1, 1, 10, 2, 7, 0, 0, 0, 0, 0, 4, 0, 0, 0, 0]",[O][=C][Branch1_1][C][O][C][O][C][Branch1_1][C][C][C][Branch1_1][C][O][C][Branch1_1][C][O][C][Ring1][Branch2_2][O][Branch1_1][C][C].[O][=C][Branch1_1][C][O][C][O][C][Branch1_1][C][C][C][Branch1_1][C][O][C][Branch1_1][C][O][C][Ring1][Branch2_2][O][Branch1_1][C][C],[C][C][O],{[][<]*C[>][<]}{[>][<]O=C(O)C1CC(O)C(O)CO1[>][<]}{[>][<]O[>][<]}{[>][<]*C[>][]},O=C(O)C1OC(C[*])C(O)C(O)C1O(C[*]).CCO,[O][=C][Branch1_1][C][O][C][O][C][Branch1_1][C][C][C][Branch1_1][C][O][C][Branch1_1][C][O][C][Ring1][Branch2_2][O][Branch1_1][C][C].[O][=C][Branch1_1][C][O][C][O][C][Branch1_1][C][C][C][Branch1_1][C][O][C][Branch1_1][C][O][C][Ring1][Branch2_2][O][Branch1_1][C][C].[C][C][O],{[][<]*C[>][<]}{[>][<]O=C(O)C1CC(O)C(O)CO1[>][<]}{[>][<]O[>][<]}{[>][<]*C[>][]}.CCO
108,chitosan,55.1,45.0,ethanol,26.5,10.0,60,3.0,0.2876,178.956407,NC2C(O)C(OC1OC(CO)C(O(C[*]))C(O)C1N)C(CO)OC2(C[*]),CCO,"[1, 3, 10, 0, 5, 0, 2, 0, 0, 0, 4, 0, 0, 0, 0]",[N][C][C][Branch1_1][C][O][C][Branch2_1][Ring1][Branch2_1][O][C][O][C][Branch1_1][Ring1][C][O][C][Branch1_1][Branch1_1][O][Branch1_1][C][C][C][Branch1_1][C][O][C][Ring1][O][N][C][Branch1_1][Ring1][C][O][O][C][Ring2][Ring1][Branch1_2][Branch1_1][C][C],[C][C][O],{[][<]*C[>][<]}{[>][<]O[>][<]}{[>][<]NC1COC(CO)CC1O[>][<]}{[>][<]O[>][<]}{[>][<]NC1COC(CO)CC1O[>][<]}{[>][<]*C[>][]},NC2C(O)C(OC1OC(CO)C(O(C[*]))C(O)C1N)C(CO)OC2(C[*]).CCO,[N][C][C][Branch1_1][C][O][C][Branch2_1][Ring1][Branch2_1][O][C][O][C][Branch1_1][Ring1][C][O][C][Branch1_1][Branch1_1][O][Branch1_1][C][C][C][Branch1_1][C][O][C][Ring1][O][N][C][Branch1_1][Ring1][C][O][O][C][Ring2][Ring1][Branch1_2][Branch1_1][C][C].[C][C][O],{[][<]*C[>][<]}{[>][<]O[>][<]}{[>][<]NC1COC(CO)CC1O[>][<]}{[>][<]O[>][<]}{[>][<]NC1COC(CO)CC1O[>][<]}{[>][<]*C[>][]}.CCO
109,chitosan,55.1,45.0,ipa,23.5,10.0,60,3.0,0.2963,1533.087739,NC2C(O)C(OC1OC(CO)C(O(C[*]))C(O)C1N)C(CO)OC2(C[*]),CC(C)O,"[2, 2, 11, 0, 5, 0, 2, 0, 0, 0, 4, 0, 0, 0, 0]",[N][C][C][Branch1_1][C][O][C][Branch2_1][Ring1][Branch2_1][O][C][O][C][Branch1_1][Ring1][C][O][C][Branch1_1][Branch1_1][O][Branch1_1][C][C][C][Branch1_1][C][O][C][Ring1][O][N][C][Branch1_1][Ring1][C][O][O][C][Ring2][Ring1][Branch1_2][Branch1_1][C][C],[C][C][Branch1_1][C][C][O],{[][<]*C[>][<]}{[>][<]O[>][<]}{[>][<]NC1COC(CO)CC1O[>][<]}{[>][<]O[>][<]}{[>][<]NC1COC(CO)CC1O[>][<]}{[>][<]*C[>][]},NC2C(O)C(OC1OC(CO)C(O(C[*]))C(O)C1N)C(CO)OC2(C[*]).CC(C)O,[N][C][C][Branch1_1][C][O][C][Branch2_1][Ring1][Branch2_1][O][C][O][C][Branch1_1][Ring1][C][O][C][Branch1_1][Branch1_1][O][Branch1_1][C][C][C][Branch1_1][C][O][C][Ring1][O][N][C][Branch1_1][Ring1][C][O][O][C][Ring2][Ring1][Branch1_2][Branch1_1][C][C].[C][C][Branch1_1][C][C][O],{[][<]*C[>][<]}{[>][<]O[>][<]}{[>][<]NC1COC(CO)CC1O[>][<]}{[>][<]O[>][<]}{[>][<]NC1COC(CO)CC1O[>][<]}{[>][<]*C[>][]}.CC(C)O
110,alginate,37.37,45.0,ethanol,26.5,10.0,60,3.0,0.3103,2363.885157,O=C(O)C1OC(C[*])C(O)C(O)C1O(C[*]),CCO,"[1, 1, 10, 2, 7, 0, 0, 0, 0, 0, 4, 0, 0, 0, 0]",[O][=C][Branch1_1][C][O][C][O][C][Branch1_1][C][C][C][Branch1_1][C][O][C][Branch1_1][C][O][C][Ring1][Branch2_2][O][Branch1_1][C][C].[O][=C][Branch1_1][C][O][C][O][C][Branch1_1][C][C][C][Branch1_1][C][O][C][Branch1_1][C][O][C][Ring1][Branch2_2][O][Branch1_1][C][C],[C][C][O],{[][<]*C[>][<]}{[>][<]O=C(O)C1CC(O)C(O)CO1[>][<]}{[>][<]O[>][<]}{[>][<]*C[>][]},O=C(O)C1OC(C[*])C(O)C(O)C1O(C[*]).CCO,[O][=C][Branch1_1][C][O][C][O][C][Branch1_1][C][C][C][Branch1_1][C][O][C][Branch1_1][C][O][C][Ring1][Branch2_2][O][Branch1_1][C][C].[O][=C][Branch1_1][C][O][C][O][C][Branch1_1][C][C][C][Branch1_1][C][O][C][Branch1_1][C][O][C][Ring1][Branch2_2][O][Branch1_1][C][C].[C][C][O],{[][<]*C[>][<]}{[>][<]O=C(O)C1CC(O)C(O)CO1[>][<]}{[>][<]O[>][<]}{[>][<]*C[>][]}.CCO
112,chitosan,55.1,45.0,ethanol,26.5,20.0,60,3.0,0.6962,75.704358,NC2C(O)C(OC1OC(CO)C(O(C[*]))C(O)C1N)C(CO)OC2(C[*]),CCO,"[1, 3, 10, 0, 5, 0, 2, 0, 0, 0, 4, 0, 0, 0, 0]",[N][C][C][Branch1_1][C][O][C][Branch2_1][Ring1][Branch2_1][O][C][O][C][Branch1_1][Ring1][C][O][C][Branch1_1][Branch1_1][O][Branch1_1][C][C][C][Branch1_1][C][O][C][Ring1][O][N][C][Branch1_1][Ring1][C][O][O][C][Ring2][Ring1][Branch1_2][Branch1_1][C][C],[C][C][O],{[][<]*C[>][<]}{[>][<]O[>][<]}{[>][<]NC1COC(CO)CC1O[>][<]}{[>][<]O[>][<]}{[>][<]NC1COC(CO)CC1O[>][<]}{[>][<]*C[>][]},NC2C(O)C(OC1OC(CO)C(O(C[*]))C(O)C1N)C(CO)OC2(C[*]).CCO,[N][C][C][Branch1_1][C][O][C][Branch2_1][Ring1][Branch2_1][O][C][O][C][Branch1_1][Ring1][C][O][C][Branch1_1][Branch1_1][O][Branch1_1][C][C][C][Branch1_1][C][O][C][Ring1][O][N][C][Branch1_1][Ring1][C][O][O][C][Ring2][Ring1][Branch1_2][Branch1_1][C][C].[C][C][O],{[][<]*C[>][<]}{[>][<]O[>][<]}{[>][<]NC1COC(CO)CC1O[>][<]}{[>][<]O[>][<]}{[>][<]NC1COC(CO)CC1O[>][<]}{[>][<]*C[>][]}.CCO