Index,Polymer,Contact_angle,Thickness_um,Solvent,Solvent_solubility_parameter_Mpa_sqrt,xw_wt_percent,Temp_C,Permeate_pressure_mbar,J_Total_flux_kg_m_2h_1,a_Separation_factor_wo,Polymer_SMILES,Solvent_SMILES,Sum_of_frags,Polymer_SELFIES,Solvent_SELFIES,Polymer_BigSMILES,PS_SMILES,PS_SELFIES,PS_BigSMILES
433,pva,74.0,10.0,ethylene_glycol,32.9,30.0,60,6.7,2.273684211,1390.625,C(*)C(*)(O),OCCO,"[0, 3, 1, 0, 3, 0, 0, 0, 0, 0, 0, 0, 0, 0, 0]",[C][Branch1_1][C][C][C][Branch1_1][C][C][Branch1_1][C][O],[O][C][C][O],{[][<]*C[>][<]}{[>][<]*CO[>][]},C(*)C(*)(O).OCCO,[C][Branch1_1][C][C][C][Branch1_1][C][C][Branch1_1][C][O].[O][C][C][O],{[][<]*C[>][<]}{[>][<]*CO[>][]}.OCCO
434,pva,74.0,10.0,ethylene_glycol,32.9,30.0,60,6.7,2.302325581,1388.101983,C(*)C(*)(O),OCCO,"[0, 3, 1, 0, 3, 0, 0, 0, 0, 0, 0, 0, 0, 0, 0]",[C][Branch1_1][C][C][C][Branch1_1][C][C][Branch1_1][C][O],[O][C][C][O],{[][<]*C[>][<]}{[>][<]*CO[>][]},C(*)C(*)(O).OCCO,[C][Branch1_1][C][C][C][Branch1_1][C][C][Branch1_1][C][O].[O][C][C][O],{[][<]*C[>][<]}{[>][<]*CO[>][]}.OCCO
435,pva,74.0,10.0,ethylene_glycol,32.9,20.0,70,6.7,2.488372093,1477.33711,C(*)C(*)(O),OCCO,"[0, 3, 1, 0, 3, 0, 0, 0, 0, 0, 0, 0, 0, 0, 0]",[C][Branch1_1][C][C][C][Branch1_1][C][C][Branch1_1][C][O],[O][C][C][O],{[][<]*C[>][<]}{[>][<]*CO[>][]},C(*)C(*)(O).OCCO,[C][Branch1_1][C][C][C][Branch1_1][C][C][Branch1_1][C][O].[O][C][C][O],{[][<]*C[>][<]}{[>][<]*CO[>][]}.OCCO
436,pva,74.0,10.0,ethylene_glycol,32.9,20.0,70,6.7,2.526315789,1484.375,C(*)C(*)(O),OCCO,"[0, 3, 1, 0, 3, 0, 0, 0, 0, 0, 0, 0, 0, 0, 0]",[C][Branch1_1][C][C][C][Branch1_1][C][C][Branch1_1][C][O],[O][C][C][O],{[][<]*C[>][<]}{[>][<]*CO[>][]},C(*)C(*)(O).OCCO,[C][Branch1_1][C][C][C][Branch1_1][C][C][Branch1_1][C][O].[O][C][C][O],{[][<]*C[>][<]}{[>][<]*CO[>][]}.OCCO
437,pva,74.0,10.0,ethylene_glycol,32.9,20.0,75,6.7,2.558139535,1219.546742,C(*)C(*)(O),OCCO,"[0, 3, 1, 0, 3, 0, 0, 0, 0, 0, 0, 0, 0, 0, 0]",[C][Branch1_1][C][C][C][Branch1_1][C][C][Branch1_1][C][O],[O][C][C][O],{[][<]*C[>][<]}{[>][<]*CO[>][]},C(*)C(*)(O).OCCO,[C][Branch1_1][C][C][C][Branch1_1][C][C][Branch1_1][C][O].[O][C][C][O],{[][<]*C[>][<]}{[>][<]*CO[>][]}.OCCO
439,pva,74.0,10.0,ethylene_glycol,32.9,20.0,80,6.7,2.744186047,892.351275,C(*)C(*)(O),OCCO,"[0, 3, 1, 0, 3, 0, 0, 0, 0, 0, 0, 0, 0, 0, 0]",[C][Branch1_1][C][C][C][Branch1_1][C][C][Branch1_1][C][O],[O][C][C][O],{[][<]*C[>][<]}{[>][<]*CO[>][]},C(*)C(*)(O).OCCO,[C][Branch1_1][C][C][C][Branch1_1][C][C][Branch1_1][C][O].[O][C][C][O],{[][<]*C[>][<]}{[>][<]*CO[>][]}.OCCO
440,pva,74.0,10.0,ethylene_glycol,32.9,20.0,80,6.7,2.821052632,906.25,C(*)C(*)(O),OCCO,"[0, 3, 1, 0, 3, 0, 0, 0, 0, 0, 0, 0, 0, 0, 0]",[C][Branch1_1][C][C][C][Branch1_1][C][C][Branch1_1][C][O],[O][C][C][O],{[][<]*C[>][<]}{[>][<]*CO[>][]},C(*)C(*)(O).OCCO,[C][Branch1_1][C][C][C][Branch1_1][C][C][Branch1_1][C][O].[O][C][C][O],{[][<]*C[>][<]}{[>][<]*CO[>][]}.OCCO
441,pva,74.0,10.0,ethylene_glycol,32.9,30.0,70,6.7,3.705263158,796.875,C(*)C(*)(O),OCCO,"[0, 3, 1, 0, 3, 0, 0, 0, 0, 0, 0, 0, 0, 0, 0]",[C][Branch1_1][C][C][C][Branch1_1][C][C][Branch1_1][C][O],[O][C][C][O],{[][<]*C[>][<]}{[>][<]*CO[>][]},C(*)C(*)(O).OCCO,[C][Branch1_1][C][C][C][Branch1_1][C][C][Branch1_1][C][O].[O][C][C][O],{[][<]*C[>][<]}{[>][<]*CO[>][]}.OCCO
442,pva,74.0,10.0,ethylene_glycol,32.9,30.0,70,6.7,3.720930233,793.201133,C(*)C(*)(O),OCCO,"[0, 3, 1, 0, 3, 0, 0, 0, 0, 0, 0, 0, 0, 0, 0]",[C][Branch1_1][C][C][C][Branch1_1][C][C][Branch1_1][C][O],[O][C][C][O],{[][<]*C[>][<]}{[>][<]*CO[>][]},C(*)C(*)(O).OCCO,[C][Branch1_1][C][C][C][Branch1_1][C][C][Branch1_1][C][O].[O][C][C][O],{[][<]*C[>][<]}{[>][<]*CO[>][]}.OCCO
443,pva,74.0,10.0,ethylene_glycol,32.9,40.0,60,6.7,3.906976744,1001.416431,C(*)C(*)(O),OCCO,"[0, 3, 1, 0, 3, 0, 0, 0, 0, 0, 0, 0, 0, 0, 0]",[C][Branch1_1][C][C][C][Branch1_1][C][C][Branch1_1][C][O],[O][C][C][O],{[][<]*C[>][<]}{[>][<]*CO[>][]},C(*)C(*)(O).OCCO,[C][Branch1_1][C][C][C][Branch1_1][C][C][Branch1_1][C][O].[O][C][C][O],{[][<]*C[>][<]}{[>][<]*CO[>][]}.OCCO
444,pva,74.0,10.0,ethylene_glycol,32.9,40.0,60,6.7,3.915789474,1015.625,C(*)C(*)(O),OCCO,"[0, 3, 1, 0, 3, 0, 0, 0, 0, 0, 0, 0, 0, 0, 0]",[C][Branch1_1][C][C][C][Branch1_1][C][C][Branch1_1][C][O],[O][C][C][O],{[][<]*C[>][<]}{[>][<]*CO[>][]},C(*)C(*)(O).OCCO,[C][Branch1_1][C][C][C][Branch1_1][C][C][Branch1_1][C][O].[O][C][C][O],{[][<]*C[>][<]}{[>][<]*CO[>][]}.OCCO
445,pva,74.0,10.0,ethylene_glycol,32.9,30.0,75,6.7,4.0,390.625,C(*)C(*)(O),OCCO,"[0, 3, 1, 0, 3, 0, 0, 0, 0, 0, 0, 0, 0, 0, 0]",[C][Branch1_1][C][C][C][Branch1_1][C][C][Branch1_1][C][O],[O][C][C][O],{[][<]*C[>][<]}{[>][<]*CO[>][]},C(*)C(*)(O).OCCO,[C][Branch1_1][C][C][C][Branch1_1][C][C][Branch1_1][C][O].[O][C][C][O],{[][<]*C[>][<]}{[>][<]*CO[>][]}.OCCO
446,pva,74.0,10.0,ethylene_glycol,32.9,30.0,75,6.7,4.023255814,386.685552,C(*)C(*)(O),OCCO,"[0, 3, 1, 0, 3, 0, 0, 0, 0, 0, 0, 0, 0, 0, 0]",[C][Branch1_1][C][C][C][Branch1_1][C][C][Branch1_1][C][O],[O][C][C][O],{[][<]*C[>][<]}{[>][<]*CO[>][]},C(*)C(*)(O).OCCO,[C][Branch1_1][C][C][C][Branch1_1][C][C][Branch1_1][C][O].[O][C][C][O],{[][<]*C[>][<]}{[>][<]*CO[>][]}.OCCO
447,pva,74.0,10.0,ethylene_glycol,32.9,30.0,80,6.7,4.505263158,125.0,C(*)C(*)(O),OCCO,"[0, 3, 1, 0, 3, 0, 0, 0, 0, 0, 0, 0, 0, 0, 0]",[C][Branch1_1][C][C][C][Branch1_1][C][C][Branch1_1][C][O],[O][C][C][O],{[][<]*C[>][<]}{[>][<]*CO[>][]},C(*)C(*)(O).OCCO,[C][Branch1_1][C][C][C][Branch1_1][C][C][Branch1_1][C][O].[O][C][C][O],{[][<]*C[>][<]}{[>][<]*CO[>][]}.OCCO
448,pva,74.0,10.0,ethylene_glycol,32.9,30.0,80,6.7,4.511627907,128.895184,C(*)C(*)(O),OCCO,"[0, 3, 1, 0, 3, 0, 0, 0, 0, 0, 0, 0, 0, 0, 0]",[C][Branch1_1][C][C][C][Branch1_1][C][C][Branch1_1][C][O],[O][C][C][O],{[][<]*C[>][<]}{[>][<]*CO[>][]},C(*)C(*)(O).OCCO,[C][Branch1_1][C][C][C][Branch1_1][C][C][Branch1_1][C][O].[O][C][C][O],{[][<]*C[>][<]}{[>][<]*CO[>][]}.OCCO
449,pva,74.0,10.0,ethylene_glycol,32.9,40.0,70,6.7,5.209302326,703.966006,C(*)C(*)(O),OCCO,"[0, 3, 1, 0, 3, 0, 0, 0, 0, 0, 0, 0, 0, 0, 0]",[C][Branch1_1][C][C][C][Branch1_1][C][C][Branch1_1][C][O],[O][C][C][O],{[][<]*C[>][<]}{[>][<]*CO[>][]},C(*)C(*)(O).OCCO,[C][Branch1_1][C][C][C][Branch1_1][C][C][Branch1_1][C][O].[O][C][C][O],{[][<]*C[>][<]}{[>][<]*CO[>][]}.OCCO
450,pva,74.0,10.0,ethylene_glycol,32.9,40.0,70,6.7,5.221052632,703.125,C(*)C(*)(O),OCCO,"[0, 3, 1, 0, 3, 0, 0, 0, 0, 0, 0, 0, 0, 0, 0]",[C][Branch1_1][C][C][C][Branch1_1][C][C][Branch1_1][C][O],[O][C][C][O],{[][<]*C[>][<]}{[>][<]*CO[>][]},C(*)C(*)(O).OCCO,[C][Branch1_1][C][C][C][Branch1_1][C][C][Branch1_1][C][O].[O][C][C][O],{[][<]*C[>][<]}{[>][<]*CO[>][]}.OCCO
452,pva,74.0,10.0,ethylene_glycol,32.9,40.0,75,6.7,5.936842105,203.125,C(*)C(*)(O),OCCO,"[0, 3, 1, 0, 3, 0, 0, 0, 0, 0, 0, 0, 0, 0, 0]",[C][Branch1_1][C][C][C][Branch1_1][C][C][Branch1_1][C][O],[O][C][C][O],{[][<]*C[>][<]}{[>][<]*CO[>][]},C(*)C(*)(O).OCCO,[C][Branch1_1][C][C][C][Branch1_1][C][C][Branch1_1][C][O].[O][C][C][O],{[][<]*C[>][<]}{[>][<]*CO[>][]}.OCCO
453,pva,74.0,10.0,ethylene_glycol,32.9,40.0,80,6.7,6.905263158,62.5,C(*)C(*)(O),OCCO,"[0, 3, 1, 0, 3, 0, 0, 0, 0, 0, 0, 0, 0, 0, 0]",[C][Branch1_1][C][C][C][Branch1_1][C][C][Branch1_1][C][O],[O][C][C][O],{[][<]*C[>][<]}{[>][<]*CO[>][]},C(*)C(*)(O).OCCO,[C][Branch1_1][C][C][C][Branch1_1][C][C][Branch1_1][C][O].[O][C][C][O],{[][<]*C[>][<]}{[>][<]*CO[>][]}.OCCO
454,pva,74.0,10.0,ethylene_glycol,32.9,40.0,80,6.7,6.906976744,69.405099,C(*)C(*)(O),OCCO,"[0, 3, 1, 0, 3, 0, 0, 0, 0, 0, 0, 0, 0, 0, 0]",[C][Branch1_1][C][C][C][Branch1_1][C][C][Branch1_1][C][O],[O][C][C][O],{[][<]*C[>][<]}{[>][<]*CO[>][]},C(*)C(*)(O).OCCO,[C][Branch1_1][C][C][C][Branch1_1][C][C][Branch1_1][C][O].[O][C][C][O],{[][<]*C[>][<]}{[>][<]*CO[>][]}.OCCO
455,pva,50.22,15.0,ethylene_glycol,32.9,20.0,50,6.7,0.071137026,1247.213949,C(*)C(*)(O),OCCO,"[0, 3, 1, 0, 3, 0, 0, 0, 0, 0, 0, 0, 0, 0, 0]",[C][Branch1_1][C][C][C][Branch1_1][C][C][Branch1_1][C][O],[O][C][C][O],{[][<]*C[>][<]}{[>][<]*CO[>][]},C(*)C(*)(O).OCCO,[C][Branch1_1][C][C][C][Branch1_1][C][C][Branch1_1][C][O].[O][C][C][O],{[][<]*C[>][<]}{[>][<]*CO[>][]}.OCCO
456,pva,50.22,15.0,ethylene_glycol,32.9,20.0,60,6.7,0.131778426,1070.3364,C(*)C(*)(O),OCCO,"[0, 3, 1, 0, 3, 0, 0, 0, 0, 0, 0, 0, 0, 0, 0]",[C][Branch1_1][C][C][C][Branch1_1][C][C][Branch1_1][C][O],[O][C][C][O],{[][<]*C[>][<]}{[>][<]*CO[>][]},C(*)C(*)(O).OCCO,[C][Branch1_1][C][C][C][Branch1_1][C][C][Branch1_1][C][O].[O][C][C][O],{[][<]*C[>][<]}{[>][<]*CO[>][]}.OCCO
457,pva,50.22,15.0,ethylene_glycol,32.9,20.0,70,6.7,0.212244898,934.285707,C(*)C(*)(O),OCCO,"[0, 3, 1, 0, 3, 0, 0, 0, 0, 0, 0, 0, 0, 0, 0]",[C][Branch1_1][C][C][C][Branch1_1][C][C][Branch1_1][C][O],[O][C][C][O],{[][<]*C[>][<]}{[>][<]*CO[>][]},C(*)C(*)(O).OCCO,[C][Branch1_1][C][C][C][Branch1_1][C][C][Branch1_1][C][O].[O][C][C][O],{[][<]*C[>][<]}{[>][<]*CO[>][]}.OCCO
458,pva,50.22,15.0,ethylene_glycol,32.9,10.0,70,6.7,0.308510638,841.121495,C(*)C(*)(O),OCCO,"[0, 3, 1, 0, 3, 0, 0, 0, 0, 0, 0, 0, 0, 0, 0]",[C][Branch1_1][C][C][C][Branch1_1][C][C][Branch1_1][C][O],[O][C][C][O],{[][<]*C[>][<]}{[>][<]*CO[>][]},C(*)C(*)(O).OCCO,[C][Branch1_1][C][C][C][Branch1_1][C][C][Branch1_1][C][O].[O][C][C][O],{[][<]*C[>][<]}{[>][<]*CO[>][]}.OCCO
459,pva,50.22,15.0,ethylene_glycol,32.9,20.0,80,6.7,0.35451895,600.617229,C(*)C(*)(O),OCCO,"[0, 3, 1, 0, 3, 0, 0, 0, 0, 0, 0, 0, 0, 0, 0]",[C][Branch1_1][C][C][C][Branch1_1][C][C][Branch1_1][C][O],[O][C][C][O],{[][<]*C[>][<]}{[>][<]*CO[>][]},C(*)C(*)(O).OCCO,[C][Branch1_1][C][C][C][Branch1_1][C][C][Branch1_1][C][O].[O][C][C][O],{[][<]*C[>][<]}{[>][<]*CO[>][]}.OCCO
460,pva,50.22,15.0,ethylene_glycol,32.9,20.0,70,6.7,0.414893617,925.233645,C(*)C(*)(O),OCCO,"[0, 3, 1, 0, 3, 0, 0, 0, 0, 0, 0, 0, 0, 0, 0]",[C][Branch1_1][C][C][C][Branch1_1][C][C][Branch1_1][C][O],[O][C][C][O],{[][<]*C[>][<]}{[>][<]*CO[>][]},C(*)C(*)(O).OCCO,[C][Branch1_1][C][C][C][Branch1_1][C][C][Branch1_1][C][O].[O][C][C][O],{[][<]*C[>][<]}{[>][<]*CO[>][]}.OCCO
462,pva,50.22,15.0,ethylene_glycol,32.9,60.0,70,6.7,0.989361702,2242.990654,C(*)C(*)(O),OCCO,"[0, 3, 1, 0, 3, 0, 0, 0, 0, 0, 0, 0, 0, 0, 0]",[C][Branch1_1][C][C][C][Branch1_1][C][C][Branch1_1][C][O],[O][C][C][O],{[][<]*C[>][<]}{[>][<]*CO[>][]},C(*)C(*)(O).OCCO,[C][Branch1_1][C][C][C][Branch1_1][C][C][Branch1_1][C][O].[O][C][C][O],{[][<]*C[>][<]}{[>][<]*CO[>][]}.OCCO
463,pva,50.22,15.0,ethylene_glycol,32.9,80.0,70,6.7,1.382978723,5495.327103,C(*)C(*)(O),OCCO,"[0, 3, 1, 0, 3, 0, 0, 0, 0, 0, 0, 0, 0, 0, 0]",[C][Branch1_1][C][C][C][Branch1_1][C][C][Branch1_1][C][O],[O][C][C][O],{[][<]*C[>][<]}{[>][<]*CO[>][]},C(*)C(*)(O).OCCO,[C][Branch1_1][C][C][C][Branch1_1][C][C][Branch1_1][C][O].[O][C][C][O],{[][<]*C[>][<]}{[>][<]*CO[>][]}.OCCO
464,pva,74.0,100.0,ethylene_glycol,32.9,10.0,70,6.7,0.422619048,1063.333333,C(*)C(*)(O),OCCO,"[0, 3, 1, 0, 3, 0, 0, 0, 0, 0, 0, 0, 0, 0, 0]",[C][Branch1_1][C][C][C][Branch1_1][C][C][Branch1_1][C][O],[O][C][C][O],{[][<]*C[>][<]}{[>][<]*CO[>][]},C(*)C(*)(O).OCCO,[C][Branch1_1][C][C][C][Branch1_1][C][C][Branch1_1][C][O].[O][C][C][O],{[][<]*C[>][<]}{[>][<]*CO[>][]}.OCCO
465,pva,74.0,100.0,ethylene_glycol,32.9,20.0,70,6.7,0.833333333,1200.0,C(*)C(*)(O),OCCO,"[0, 3, 1, 0, 3, 0, 0, 0, 0, 0, 0, 0, 0, 0, 0]",[C][Branch1_1][C][C][C][Branch1_1][C][C][Branch1_1][C][O],[O][C][C][O],{[][<]*C[>][<]}{[>][<]*CO[>][]},C(*)C(*)(O).OCCO,[C][Branch1_1][C][C][C][Branch1_1][C][C][Branch1_1][C][O].[O][C][C][O],{[][<]*C[>][<]}{[>][<]*CO[>][]}.OCCO
466,pva,74.0,100.0,ethylene_glycol,32.9,30.0,70,6.7,1.244047619,780.0,C(*)C(*)(O),OCCO,"[0, 3, 1, 0, 3, 0, 0, 0, 0, 0, 0, 0, 0, 0, 0]",[C][Branch1_1][C][C][C][Branch1_1][C][C][Branch1_1][C][O],[O][C][C][O],{[][<]*C[>][<]}{[>][<]*CO[>][]},C(*)C(*)(O).OCCO,[C][Branch1_1][C][C][C][Branch1_1][C][C][Branch1_1][C][O].[O][C][C][O],{[][<]*C[>][<]}{[>][<]*CO[>][]}.OCCO
467,pva,74.0,100.0,ethylene_glycol,32.9,40.0,70,6.7,1.398809524,706.666667,C(*)C(*)(O),OCCO,"[0, 3, 1, 0, 3, 0, 0, 0, 0, 0, 0, 0, 0, 0, 0]",[C][Branch1_1][C][C][C][Branch1_1][C][C][Branch1_1][C][O],[O][C][C][O],{[][<]*C[>][<]}{[>][<]*CO[>][]},C(*)C(*)(O).OCCO,[C][Branch1_1][C][C][C][Branch1_1][C][C][Branch1_1][C][O].[O][C][C][O],{[][<]*C[>][<]}{[>][<]*CO[>][]}.OCCO
468,ppo,89.0,40.0,ethylene_glycol,32.9,5.0,50,0.01,0.011617647,480.0,Cc1cc([*])cc(C)c1O[*] ,OCCO,"[2, 2, 0, 0, 2, 0, 0, 0, 0, 1, 1, 0, 0, 0, 0]",[C][C][=C][C][Branch1_1][C][C][=C][C][Branch1_1][C][C][=C][Ring1][Branch2_1][O][Branch1_1][C][C],[O][C][C][O],{[][<]*c1cc(C)cc(C)c1[>][<]}{[>][<]*O[>][]},Cc1cc([*])cc(C)c1O[*] .OCCO,[C][C][=C][C][Branch1_1][C][C][=C][C][Branch1_1][C][C][=C][Ring1][Branch2_1][O][Branch1_1][C][C].[O][C][C][O],{[][<]*c1cc(C)cc(C)c1[>][<]}{[>][<]*O[>][]}.OCCO
469,ppo,89.0,40.0,ethylene_glycol,32.9,7.0,50,0.01,0.012720588,440.0,Cc1cc([*])cc(C)c1O[*] ,OCCO,"[2, 2, 0, 0, 2, 0, 0, 0, 0, 1, 1, 0, 0, 0, 0]",[C][C][=C][C][Branch1_1][C][C][=C][C][Branch1_1][C][C][=C][Ring1][Branch2_1][O][Branch1_1][C][C],[O][C][C][O],{[][<]*c1cc(C)cc(C)c1[>][<]}{[>][<]*O[>][]},Cc1cc([*])cc(C)c1O[*] .OCCO,[C][C][=C][C][Branch1_1][C][C][=C][C][Branch1_1][C][C][=C][Ring1][Branch2_1][O][Branch1_1][C][C].[O][C][C][O],{[][<]*c1cc(C)cc(C)c1[>][<]}{[>][<]*O[>][]}.OCCO
470,ppo,89.0,40.0,ethylene_glycol,32.9,10.0,50,0.01,0.015588235,400.0,Cc1cc([*])cc(C)c1O[*] ,OCCO,"[2, 2, 0, 0, 2, 0, 0, 0, 0, 1, 1, 0, 0, 0, 0]",[C][C][=C][C][Branch1_1][C][C][=C][C][Branch1_1][C][C][=C][Ring1][Branch2_1][O][Branch1_1][C][C],[O][C][C][O],{[][<]*c1cc(C)cc(C)c1[>][<]}{[>][<]*O[>][]},Cc1cc([*])cc(C)c1O[*] .OCCO,[C][C][=C][C][Branch1_1][C][C][=C][C][Branch1_1][C][C][=C][Ring1][Branch2_1][O][Branch1_1][C][C].[O][C][C][O],{[][<]*c1cc(C)cc(C)c1[>][<]}{[>][<]*O[>][]}.OCCO
471,ppo,89.0,40.0,ethylene_glycol,32.9,12.0,50,0.01,0.016176471,293.333333,Cc1cc([*])cc(C)c1O[*] ,OCCO,"[2, 2, 0, 0, 2, 0, 0, 0, 0, 1, 1, 0, 0, 0, 0]",[C][C][=C][C][Branch1_1][C][C][=C][C][Branch1_1][C][C][=C][Ring1][Branch2_1][O][Branch1_1][C][C],[O][C][C][O],{[][<]*c1cc(C)cc(C)c1[>][<]}{[>][<]*O[>][]},Cc1cc([*])cc(C)c1O[*] .OCCO,[C][C][=C][C][Branch1_1][C][C][=C][C][Branch1_1][C][C][=C][Ring1][Branch2_1][O][Branch1_1][C][C].[O][C][C][O],{[][<]*c1cc(C)cc(C)c1[>][<]}{[>][<]*O[>][]}.OCCO
472,pim-1,108.2,45.0,ethylene_glycol,32.9,20.0,30,10.0,0.162637362,59.216867,CC6(C)CC4(CC(C)(C)c3cc2oc1c(C#N)c([*])c([*])c(C#N)c1oc2cc34)c5cc(O[*])c(O[*])cc56,OCCO,"[4, 4, 0, 0, 2, 3, 0, 0, 2, 3, 4, 0, 2, 0, 0]",[C][C][Branch1_1][C][C][C][C][Branch2_1][Ring2][#C][C][C][Branch1_1][C][C][Branch1_1][C][C][C][=C][C][O][C][=C][Branch1_1][Ring1][C][#N][C][Branch1_1][C][C][=C][Branch1_1][C][C][C][Branch1_1][Ring1][C][#N][=C][Ring1][N][O][C][Expl=Ring1][S][C][=C][Ring2][Ring1][Ring2][Ring2][Ring1][Branch2_2][C][=C][C][Branch1_1][Branch1_1][O][Branch1_1][C][C][=C][Branch1_1][Branch1_1][O][Branch1_1][C][C][C][=C][Ring1][Branch2_3][Ring2][Ring2][Branch1_2],[O][C][C][O],Oc1cc2c(cc1O)C1(CC2(C)C)CC(C)(C)c2cc3c(cc21)Oc1c(C#N)c()c()c(C#N)c1O3,CC6(C)CC4(CC(C)(C)c3cc2oc1c(C#N)c([*])c([*])c(C#N)c1oc2cc34)c5cc(O[*])c(O[*])cc56.OCCO,[C][C][Branch1_1][C][C][C][C][Branch2_1][Ring2][#C][C][C][Branch1_1][C][C][Branch1_1][C][C][C][=C][C][O][C][=C][Branch1_1][Ring1][C][#N][C][Branch1_1][C][C][=C][Branch1_1][C][C][C][Branch1_1][Ring1][C][#N][=C][Ring1][N][O][C][Expl=Ring1][S][C][=C][Ring2][Ring1][Ring2][Ring2][Ring1][Branch2_2][C][=C][C][Branch1_1][Branch1_1][O][Branch1_1][C][C][=C][Branch1_1][Branch1_1][O][Branch1_1][C][C][C][=C][Ring1][Branch2_3][Ring2][Ring2][Branch1_2].[O][C][C][O],Oc1cc2c(cc1O)C1(CC2(C)C)CC(C)(C)c2cc3c(cc21)Oc1c(C#N)c()c()c(C#N)c1O3.OCCO
473,pim-1,87.8,30.0,ethylene_glycol,32.9,6.56,30,10.0,0.027333333,36.42,CC6(C)CC4(CC(C)(C)c3cc2oc1c(C#N)c([*])c([*])c(C#N)c1oc2cc34)c5cc(O[*])c(O[*])cc56,OCCO,"[4, 4, 0, 0, 2, 3, 0, 0, 2, 3, 4, 0, 2, 0, 0]",[C][C][Branch1_1][C][C][C][C][Branch2_1][Ring2][#C][C][C][Branch1_1][C][C][Branch1_1][C][C][C][=C][C][O][C][=C][Branch1_1][Ring1][C][#N][C][Branch1_1][C][C][=C][Branch1_1][C][C][C][Branch1_1][Ring1][C][#N][=C][Ring1][N][O][C][Expl=Ring1][S][C][=C][Ring2][Ring1][Ring2][Ring2][Ring1][Branch2_2][C][=C][C][Branch1_1][Branch1_1][O][Branch1_1][C][C][=C][Branch1_1][Branch1_1][O][Branch1_1][C][C][C][=C][Ring1][Branch2_3][Ring2][Ring2][Branch1_2],[O][C][C][O],Oc1cc2c(cc1O)C1(CC2(C)C)CC(C)(C)c2cc3c(cc21)Oc1c(C#N)c()c()c(C#N)c1O3,CC6(C)CC4(CC(C)(C)c3cc2oc1c(C#N)c([*])c([*])c(C#N)c1oc2cc34)c5cc(O[*])c(O[*])cc56.OCCO,[C][C][Branch1_1][C][C][C][C][Branch2_1][Ring2][#C][C][C][Branch1_1][C][C][Branch1_1][C][C][C][=C][C][O][C][=C][Branch1_1][Ring1][C][#N][C][Branch1_1][C][C][=C][Branch1_1][C][C][C][Branch1_1][Ring1][C][#N][=C][Ring1][N][O][C][Expl=Ring1][S][C][=C][Ring2][Ring1][Ring2][Ring2][Ring1][Branch2_2][C][=C][C][Branch1_1][Branch1_1][O][Branch1_1][C][C][=C][Branch1_1][Branch1_1][O][Branch1_1][C][C][C][=C][Ring1][Branch2_3][Ring2][Ring2][Branch1_2].[O][C][C][O],Oc1cc2c(cc1O)C1(CC2(C)C)CC(C)(C)c2cc3c(cc21)Oc1c(C#N)c()c()c(C#N)c1O3.OCCO
474,pim-1,87.8,30.0,ethylene_glycol,32.9,18.5,20,10.0,0.041666667,18.75,CC6(C)CC4(CC(C)(C)c3cc2oc1c(C#N)c([*])c([*])c(C#N)c1oc2cc34)c5cc(O[*])c(O[*])cc56,OCCO,"[4, 4, 0, 0, 2, 3, 0, 0, 2, 3, 4, 0, 2, 0, 0]",[C][C][Branch1_1][C][C][C][C][Branch2_1][Ring2][#C][C][C][Branch1_1][C][C][Branch1_1][C][C][C][=C][C][O][C][=C][Branch1_1][Ring1][C][#N][C][Branch1_1][C][C][=C][Branch1_1][C][C][C][Branch1_1][Ring1][C][#N][=C][Ring1][N][O][C][Expl=Ring1][S][C][=C][Ring2][Ring1][Ring2][Ring2][Ring1][Branch2_2][C][=C][C][Branch1_1][Branch1_1][O][Branch1_1][C][C][=C][Branch1_1][Branch1_1][O][Branch1_1][C][C][C][=C][Ring1][Branch2_3][Ring2][Ring2][Branch1_2],[O][C][C][O],Oc1cc2c(cc1O)C1(CC2(C)C)CC(C)(C)c2cc3c(cc21)Oc1c(C#N)c()c()c(C#N)c1O3,CC6(C)CC4(CC(C)(C)c3cc2oc1c(C#N)c([*])c([*])c(C#N)c1oc2cc34)c5cc(O[*])c(O[*])cc56.OCCO,[C][C][Branch1_1][C][C][C][C][Branch2_1][Ring2][#C][C][C][Branch1_1][C][C][Branch1_1][C][C][C][=C][C][O][C][=C][Branch1_1][Ring1][C][#N][C][Branch1_1][C][C][=C][Branch1_1][C][C][C][Branch1_1][Ring1][C][#N][=C][Ring1][N][O][C][Expl=Ring1][S][C][=C][Ring2][Ring1][Ring2][Ring2][Ring1][Branch2_2][C][=C][C][Branch1_1][Branch1_1][O][Branch1_1][C][C][=C][Branch1_1][Branch1_1][O][Branch1_1][C][C][C][=C][Ring1][Branch2_3][Ring2][Ring2][Branch1_2].[O][C][C][O],Oc1cc2c(cc1O)C1(CC2(C)C)CC(C)(C)c2cc3c(cc21)Oc1c(C#N)c()c()c(C#N)c1O3.OCCO
475,pim-1,87.8,30.0,ethylene_glycol,32.9,10.33,30,10.0,0.050666667,39.11,CC6(C)CC4(CC(C)(C)c3cc2oc1c(C#N)c([*])c([*])c(C#N)c1oc2cc34)c5cc(O[*])c(O[*])cc56,OCCO,"[4, 4, 0, 0, 2, 3, 0, 0, 2, 3, 4, 0, 2, 0, 0]",[C][C][Branch1_1][C][C][C][C][Branch2_1][Ring2][#C][C][C][Branch1_1][C][C][Branch1_1][C][C][C][=C][C][O][C][=C][Branch1_1][Ring1][C][#N][C][Branch1_1][C][C][=C][Branch1_1][C][C][C][Branch1_1][Ring1][C][#N][=C][Ring1][N][O][C][Expl=Ring1][S][C][=C][Ring2][Ring1][Ring2][Ring2][Ring1][Branch2_2][C][=C][C][Branch1_1][Branch1_1][O][Branch1_1][C][C][=C][Branch1_1][Branch1_1][O][Branch1_1][C][C][C][=C][Ring1][Branch2_3][Ring2][Ring2][Branch1_2],[O][C][C][O],Oc1cc2c(cc1O)C1(CC2(C)C)CC(C)(C)c2cc3c(cc21)Oc1c(C#N)c()c()c(C#N)c1O3,CC6(C)CC4(CC(C)(C)c3cc2oc1c(C#N)c([*])c([*])c(C#N)c1oc2cc34)c5cc(O[*])c(O[*])cc56.OCCO,[C][C][Branch1_1][C][C][C][C][Branch2_1][Ring2][#C][C][C][Branch1_1][C][C][Branch1_1][C][C][C][=C][C][O][C][=C][Branch1_1][Ring1][C][#N][C][Branch1_1][C][C][=C][Branch1_1][C][C][C][Branch1_1][Ring1][C][#N][=C][Ring1][N][O][C][Expl=Ring1][S][C][=C][Ring2][Ring1][Ring2][Ring2][Ring1][Branch2_2][C][=C][C][Branch1_1][Branch1_1][O][Branch1_1][C][C][=C][Branch1_1][Branch1_1][O][Branch1_1][C][C][C][=C][Ring1][Branch2_3][Ring2][Ring2][Branch1_2].[O][C][C][O],Oc1cc2c(cc1O)C1(CC2(C)C)CC(C)(C)c2cc3c(cc21)Oc1c(C#N)c()c()c(C#N)c1O3.OCCO