Index,Polymer,Contact_angle,Thickness_um,Solvent,Solvent_solubility_parameter_Mpa_sqrt,xw_wt_percent,Temp_C,Permeate_pressure_mbar,J_Total_flux_kg_m_2h_1,a_Separation_factor_wo,Polymer_SMILES,Solvent_SMILES,Sum_of_frags,Polymer_SELFIES,Solvent_SELFIES,Polymer_BigSMILES,PS_SMILES,PS_SELFIES,PS_BigSMILES
476,pim-1,87.8,30.0,ethylene_glycol,32.9,14.04,30,10.0,0.075,40.09,CC6(C)CC4(CC(C)(C)c3cc2oc1c(C#N)c([*])c([*])c(C#N)c1oc2cc34)c5cc(O[*])c(O[*])cc56,OCCO,"[4, 4, 0, 0, 2, 3, 0, 0, 2, 3, 4, 0, 2, 0, 0]",[C][C][Branch1_1][C][C][C][C][Branch2_1][Ring2][#C][C][C][Branch1_1][C][C][Branch1_1][C][C][C][=C][C][O][C][=C][Branch1_1][Ring1][C][#N][C][Branch1_1][C][C][=C][Branch1_1][C][C][C][Branch1_1][Ring1][C][#N][=C][Ring1][N][O][C][Expl=Ring1][S][C][=C][Ring2][Ring1][Ring2][Ring2][Ring1][Branch2_2][C][=C][C][Branch1_1][Branch1_1][O][Branch1_1][C][C][=C][Branch1_1][Branch1_1][O][Branch1_1][C][C][C][=C][Ring1][Branch2_3][Ring2][Ring2][Branch1_2],[O][C][C][O],Oc1cc2c(cc1O)C1(CC2(C)C)CC(C)(C)c2cc3c(cc21)Oc1c(C#N)c()c()c(C#N)c1O3,CC6(C)CC4(CC(C)(C)c3cc2oc1c(C#N)c([*])c([*])c(C#N)c1oc2cc34)c5cc(O[*])c(O[*])cc56.OCCO,[C][C][Branch1_1][C][C][C][C][Branch2_1][Ring2][#C][C][C][Branch1_1][C][C][Branch1_1][C][C][C][=C][C][O][C][=C][Branch1_1][Ring1][C][#N][C][Branch1_1][C][C][=C][Branch1_1][C][C][C][Branch1_1][Ring1][C][#N][=C][Ring1][N][O][C][Expl=Ring1][S][C][=C][Ring2][Ring1][Ring2][Ring2][Ring1][Branch2_2][C][=C][C][Branch1_1][Branch1_1][O][Branch1_1][C][C][=C][Branch1_1][Branch1_1][O][Branch1_1][C][C][C][=C][Ring1][Branch2_3][Ring2][Ring2][Branch1_2].[O][C][C][O],Oc1cc2c(cc1O)C1(CC2(C)C)CC(C)(C)c2cc3c(cc21)Oc1c(C#N)c()c()c(C#N)c1O3.OCCO
477,pim-1,87.8,30.0,ethylene_glycol,32.9,18.5,30,10.0,0.095666667,42.93,CC6(C)CC4(CC(C)(C)c3cc2oc1c(C#N)c([*])c([*])c(C#N)c1oc2cc34)c5cc(O[*])c(O[*])cc56,OCCO,"[4, 4, 0, 0, 2, 3, 0, 0, 2, 3, 4, 0, 2, 0, 0]",[C][C][Branch1_1][C][C][C][C][Branch2_1][Ring2][#C][C][C][Branch1_1][C][C][Branch1_1][C][C][C][=C][C][O][C][=C][Branch1_1][Ring1][C][#N][C][Branch1_1][C][C][=C][Branch1_1][C][C][C][Branch1_1][Ring1][C][#N][=C][Ring1][N][O][C][Expl=Ring1][S][C][=C][Ring2][Ring1][Ring2][Ring2][Ring1][Branch2_2][C][=C][C][Branch1_1][Branch1_1][O][Branch1_1][C][C][=C][Branch1_1][Branch1_1][O][Branch1_1][C][C][C][=C][Ring1][Branch2_3][Ring2][Ring2][Branch1_2],[O][C][C][O],Oc1cc2c(cc1O)C1(CC2(C)C)CC(C)(C)c2cc3c(cc21)Oc1c(C#N)c()c()c(C#N)c1O3,CC6(C)CC4(CC(C)(C)c3cc2oc1c(C#N)c([*])c([*])c(C#N)c1oc2cc34)c5cc(O[*])c(O[*])cc56.OCCO,[C][C][Branch1_1][C][C][C][C][Branch2_1][Ring2][#C][C][C][Branch1_1][C][C][Branch1_1][C][C][C][=C][C][O][C][=C][Branch1_1][Ring1][C][#N][C][Branch1_1][C][C][=C][Branch1_1][C][C][C][Branch1_1][Ring1][C][#N][=C][Ring1][N][O][C][Expl=Ring1][S][C][=C][Ring2][Ring1][Ring2][Ring2][Ring1][Branch2_2][C][=C][C][Branch1_1][Branch1_1][O][Branch1_1][C][C][=C][Branch1_1][Branch1_1][O][Branch1_1][C][C][C][=C][Ring1][Branch2_3][Ring2][Ring2][Branch1_2].[O][C][C][O],Oc1cc2c(cc1O)C1(CC2(C)C)CC(C)(C)c2cc3c(cc21)Oc1c(C#N)c()c()c(C#N)c1O3.OCCO
478,pim-1,87.8,30.0,ethylene_glycol,32.9,18.5,40,10.0,0.117666667,47.34,CC6(C)CC4(CC(C)(C)c3cc2oc1c(C#N)c([*])c([*])c(C#N)c1oc2cc34)c5cc(O[*])c(O[*])cc56,OCCO,"[4, 4, 0, 0, 2, 3, 0, 0, 2, 3, 4, 0, 2, 0, 0]",[C][C][Branch1_1][C][C][C][C][Branch2_1][Ring2][#C][C][C][Branch1_1][C][C][Branch1_1][C][C][C][=C][C][O][C][=C][Branch1_1][Ring1][C][#N][C][Branch1_1][C][C][=C][Branch1_1][C][C][C][Branch1_1][Ring1][C][#N][=C][Ring1][N][O][C][Expl=Ring1][S][C][=C][Ring2][Ring1][Ring2][Ring2][Ring1][Branch2_2][C][=C][C][Branch1_1][Branch1_1][O][Branch1_1][C][C][=C][Branch1_1][Branch1_1][O][Branch1_1][C][C][C][=C][Ring1][Branch2_3][Ring2][Ring2][Branch1_2],[O][C][C][O],Oc1cc2c(cc1O)C1(CC2(C)C)CC(C)(C)c2cc3c(cc21)Oc1c(C#N)c()c()c(C#N)c1O3,CC6(C)CC4(CC(C)(C)c3cc2oc1c(C#N)c([*])c([*])c(C#N)c1oc2cc34)c5cc(O[*])c(O[*])cc56.OCCO,[C][C][Branch1_1][C][C][C][C][Branch2_1][Ring2][#C][C][C][Branch1_1][C][C][Branch1_1][C][C][C][=C][C][O][C][=C][Branch1_1][Ring1][C][#N][C][Branch1_1][C][C][=C][Branch1_1][C][C][C][Branch1_1][Ring1][C][#N][=C][Ring1][N][O][C][Expl=Ring1][S][C][=C][Ring2][Ring1][Ring2][Ring2][Ring1][Branch2_2][C][=C][C][Branch1_1][Branch1_1][O][Branch1_1][C][C][=C][Branch1_1][Branch1_1][O][Branch1_1][C][C][C][=C][Ring1][Branch2_3][Ring2][Ring2][Branch1_2].[O][C][C][O],Oc1cc2c(cc1O)C1(CC2(C)C)CC(C)(C)c2cc3c(cc21)Oc1c(C#N)c()c()c(C#N)c1O3.OCCO
479,pim-1,87.8,30.0,ethylene_glycol,32.9,22.66,30,10.0,0.127333333,51.13,CC6(C)CC4(CC(C)(C)c3cc2oc1c(C#N)c([*])c([*])c(C#N)c1oc2cc34)c5cc(O[*])c(O[*])cc56,OCCO,"[4, 4, 0, 0, 2, 3, 0, 0, 2, 3, 4, 0, 2, 0, 0]",[C][C][Branch1_1][C][C][C][C][Branch2_1][Ring2][#C][C][C][Branch1_1][C][C][Branch1_1][C][C][C][=C][C][O][C][=C][Branch1_1][Ring1][C][#N][C][Branch1_1][C][C][=C][Branch1_1][C][C][C][Branch1_1][Ring1][C][#N][=C][Ring1][N][O][C][Expl=Ring1][S][C][=C][Ring2][Ring1][Ring2][Ring2][Ring1][Branch2_2][C][=C][C][Branch1_1][Branch1_1][O][Branch1_1][C][C][=C][Branch1_1][Branch1_1][O][Branch1_1][C][C][C][=C][Ring1][Branch2_3][Ring2][Ring2][Branch1_2],[O][C][C][O],Oc1cc2c(cc1O)C1(CC2(C)C)CC(C)(C)c2cc3c(cc21)Oc1c(C#N)c()c()c(C#N)c1O3,CC6(C)CC4(CC(C)(C)c3cc2oc1c(C#N)c([*])c([*])c(C#N)c1oc2cc34)c5cc(O[*])c(O[*])cc56.OCCO,[C][C][Branch1_1][C][C][C][C][Branch2_1][Ring2][#C][C][C][Branch1_1][C][C][Branch1_1][C][C][C][=C][C][O][C][=C][Branch1_1][Ring1][C][#N][C][Branch1_1][C][C][=C][Branch1_1][C][C][C][Branch1_1][Ring1][C][#N][=C][Ring1][N][O][C][Expl=Ring1][S][C][=C][Ring2][Ring1][Ring2][Ring2][Ring1][Branch2_2][C][=C][C][Branch1_1][Branch1_1][O][Branch1_1][C][C][=C][Branch1_1][Branch1_1][O][Branch1_1][C][C][C][=C][Ring1][Branch2_3][Ring2][Ring2][Branch1_2].[O][C][C][O],Oc1cc2c(cc1O)C1(CC2(C)C)CC(C)(C)c2cc3c(cc21)Oc1c(C#N)c()c()c(C#N)c1O3.OCCO
481,chitosan,55.1,160.0,ethylene_glycol,32.9,8.0,30,0.33,0.150769231,191.025641,NC2C(O)C(OC1OC(CO)C(O(C[*]))C(O)C1N)C(CO)OC2(C[*]),OCCO,"[0, 4, 10, 0, 6, 0, 2, 0, 0, 0, 4, 0, 0, 0, 0]",[N][C][C][Branch1_1][C][O][C][Branch2_1][Ring1][Branch2_1][O][C][O][C][Branch1_1][Ring1][C][O][C][Branch1_1][Branch1_1][O][Branch1_1][C][C][C][Branch1_1][C][O][C][Ring1][O][N][C][Branch1_1][Ring1][C][O][O][C][Ring2][Ring1][Branch1_2][Branch1_1][C][C],[O][C][C][O],{[][<]*C[>][<]}{[>][<]O[>][<]}{[>][<]NC1COC(CO)CC1O[>][<]}{[>][<]O[>][<]}{[>][<]NC1COC(CO)CC1O[>][<]}{[>][<]*C[>][]},NC2C(O)C(OC1OC(CO)C(O(C[*]))C(O)C1N)C(CO)OC2(C[*]).OCCO,[N][C][C][Branch1_1][C][O][C][Branch2_1][Ring1][Branch2_1][O][C][O][C][Branch1_1][Ring1][C][O][C][Branch1_1][Branch1_1][O][Branch1_1][C][C][C][Branch1_1][C][O][C][Ring1][O][N][C][Branch1_1][Ring1][C][O][O][C][Ring2][Ring1][Branch1_2][Branch1_1][C][C].[O][C][C][O],{[][<]*C[>][<]}{[>][<]O[>][<]}{[>][<]NC1COC(CO)CC1O[>][<]}{[>][<]O[>][<]}{[>][<]NC1COC(CO)CC1O[>][<]}{[>][<]*C[>][]}.OCCO
482,chitosan,55.1,100.0,ethylene_glycol,32.9,8.0,30,0.33,0.307692308,103.846154,NC2C(O)C(OC1OC(CO)C(O(C[*]))C(O)C1N)C(CO)OC2(C[*]),OCCO,"[0, 4, 10, 0, 6, 0, 2, 0, 0, 0, 4, 0, 0, 0, 0]",[N][C][C][Branch1_1][C][O][C][Branch2_1][Ring1][Branch2_1][O][C][O][C][Branch1_1][Ring1][C][O][C][Branch1_1][Branch1_1][O][Branch1_1][C][C][C][Branch1_1][C][O][C][Ring1][O][N][C][Branch1_1][Ring1][C][O][O][C][Ring2][Ring1][Branch1_2][Branch1_1][C][C],[O][C][C][O],{[][<]*C[>][<]}{[>][<]O[>][<]}{[>][<]NC1COC(CO)CC1O[>][<]}{[>][<]O[>][<]}{[>][<]NC1COC(CO)CC1O[>][<]}{[>][<]*C[>][]},NC2C(O)C(OC1OC(CO)C(O(C[*]))C(O)C1N)C(CO)OC2(C[*]).OCCO,[N][C][C][Branch1_1][C][O][C][Branch2_1][Ring1][Branch2_1][O][C][O][C][Branch1_1][Ring1][C][O][C][Branch1_1][Branch1_1][O][Branch1_1][C][C][C][Branch1_1][C][O][C][Ring1][O][N][C][Branch1_1][Ring1][C][O][O][C][Ring2][Ring1][Branch1_2][Branch1_1][C][C].[O][C][C][O],{[][<]*C[>][<]}{[>][<]O[>][<]}{[>][<]NC1COC(CO)CC1O[>][<]}{[>][<]O[>][<]}{[>][<]NC1COC(CO)CC1O[>][<]}{[>][<]*C[>][]}.OCCO
483,chitosan,55.1,60.0,ethylene_glycol,32.9,8.0,30,0.33,0.449230769,62.820513,NC2C(O)C(OC1OC(CO)C(O(C[*]))C(O)C1N)C(CO)OC2(C[*]),OCCO,"[0, 4, 10, 0, 6, 0, 2, 0, 0, 0, 4, 0, 0, 0, 0]",[N][C][C][Branch1_1][C][O][C][Branch2_1][Ring1][Branch2_1][O][C][O][C][Branch1_1][Ring1][C][O][C][Branch1_1][Branch1_1][O][Branch1_1][C][C][C][Branch1_1][C][O][C][Ring1][O][N][C][Branch1_1][Ring1][C][O][O][C][Ring2][Ring1][Branch1_2][Branch1_1][C][C],[O][C][C][O],{[][<]*C[>][<]}{[>][<]O[>][<]}{[>][<]NC1COC(CO)CC1O[>][<]}{[>][<]O[>][<]}{[>][<]NC1COC(CO)CC1O[>][<]}{[>][<]*C[>][]},NC2C(O)C(OC1OC(CO)C(O(C[*]))C(O)C1N)C(CO)OC2(C[*]).OCCO,[N][C][C][Branch1_1][C][O][C][Branch2_1][Ring1][Branch2_1][O][C][O][C][Branch1_1][Ring1][C][O][C][Branch1_1][Branch1_1][O][Branch1_1][C][C][C][Branch1_1][C][O][C][Ring1][O][N][C][Branch1_1][Ring1][C][O][O][C][Ring2][Ring1][Branch1_2][Branch1_1][C][C].[O][C][C][O],{[][<]*C[>][<]}{[>][<]O[>][<]}{[>][<]NC1COC(CO)CC1O[>][<]}{[>][<]O[>][<]}{[>][<]NC1COC(CO)CC1O[>][<]}{[>][<]*C[>][]}.OCCO
484,chitosan,55.1,50.0,ethylene_glycol,32.9,8.0,30,12.0,0.172680412,127.731959,NC2C(O)C(OC1OC(CO)C(O(C[*]))C(O)C1N)C(CO)OC2(C[*]),OCCO,"[0, 4, 10, 0, 6, 0, 2, 0, 0, 0, 4, 0, 0, 0, 0]",[N][C][C][Branch1_1][C][O][C][Branch2_1][Ring1][Branch2_1][O][C][O][C][Branch1_1][Ring1][C][O][C][Branch1_1][Branch1_1][O][Branch1_1][C][C][C][Branch1_1][C][O][C][Ring1][O][N][C][Branch1_1][Ring1][C][O][O][C][Ring2][Ring1][Branch1_2][Branch1_1][C][C],[O][C][C][O],{[][<]*C[>][<]}{[>][<]O[>][<]}{[>][<]NC1COC(CO)CC1O[>][<]}{[>][<]O[>][<]}{[>][<]NC1COC(CO)CC1O[>][<]}{[>][<]*C[>][]},NC2C(O)C(OC1OC(CO)C(O(C[*]))C(O)C1N)C(CO)OC2(C[*]).OCCO,[N][C][C][Branch1_1][C][O][C][Branch2_1][Ring1][Branch2_1][O][C][O][C][Branch1_1][Ring1][C][O][C][Branch1_1][Branch1_1][O][Branch1_1][C][C][C][Branch1_1][C][O][C][Ring1][O][N][C][Branch1_1][Ring1][C][O][O][C][Ring2][Ring1][Branch1_2][Branch1_1][C][C].[O][C][C][O],{[][<]*C[>][<]}{[>][<]O[>][<]}{[>][<]NC1COC(CO)CC1O[>][<]}{[>][<]O[>][<]}{[>][<]NC1COC(CO)CC1O[>][<]}{[>][<]*C[>][]}.OCCO
485,chitosan,55.1,50.0,ethylene_glycol,32.9,8.0,30,6.7,0.298969072,86.597938,NC2C(O)C(OC1OC(CO)C(O(C[*]))C(O)C1N)C(CO)OC2(C[*]),OCCO,"[0, 4, 10, 0, 6, 0, 2, 0, 0, 0, 4, 0, 0, 0, 0]",[N][C][C][Branch1_1][C][O][C][Branch2_1][Ring1][Branch2_1][O][C][O][C][Branch1_1][Ring1][C][O][C][Branch1_1][Branch1_1][O][Branch1_1][C][C][C][Branch1_1][C][O][C][Ring1][O][N][C][Branch1_1][Ring1][C][O][O][C][Ring2][Ring1][Branch1_2][Branch1_1][C][C],[O][C][C][O],{[][<]*C[>][<]}{[>][<]O[>][<]}{[>][<]NC1COC(CO)CC1O[>][<]}{[>][<]O[>][<]}{[>][<]NC1COC(CO)CC1O[>][<]}{[>][<]*C[>][]},NC2C(O)C(OC1OC(CO)C(O(C[*]))C(O)C1N)C(CO)OC2(C[*]).OCCO,[N][C][C][Branch1_1][C][O][C][Branch2_1][Ring1][Branch2_1][O][C][O][C][Branch1_1][Ring1][C][O][C][Branch1_1][Branch1_1][O][Branch1_1][C][C][C][Branch1_1][C][O][C][Ring1][O][N][C][Branch1_1][Ring1][C][O][O][C][Ring2][Ring1][Branch1_2][Branch1_1][C][C].[O][C][C][O],{[][<]*C[>][<]}{[>][<]O[>][<]}{[>][<]NC1COC(CO)CC1O[>][<]}{[>][<]O[>][<]}{[>][<]NC1COC(CO)CC1O[>][<]}{[>][<]*C[>][]}.OCCO
486,chitosan,55.1,50.0,ethylene_glycol,32.9,8.0,30,2.6,0.371134021,73.608247,NC2C(O)C(OC1OC(CO)C(O(C[*]))C(O)C1N)C(CO)OC2(C[*]),OCCO,"[0, 4, 10, 0, 6, 0, 2, 0, 0, 0, 4, 0, 0, 0, 0]",[N][C][C][Branch1_1][C][O][C][Branch2_1][Ring1][Branch2_1][O][C][O][C][Branch1_1][Ring1][C][O][C][Branch1_1][Branch1_1][O][Branch1_1][C][C][C][Branch1_1][C][O][C][Ring1][O][N][C][Branch1_1][Ring1][C][O][O][C][Ring2][Ring1][Branch1_2][Branch1_1][C][C],[O][C][C][O],{[][<]*C[>][<]}{[>][<]O[>][<]}{[>][<]NC1COC(CO)CC1O[>][<]}{[>][<]O[>][<]}{[>][<]NC1COC(CO)CC1O[>][<]}{[>][<]*C[>][]},NC2C(O)C(OC1OC(CO)C(O(C[*]))C(O)C1N)C(CO)OC2(C[*]).OCCO,[N][C][C][Branch1_1][C][O][C][Branch2_1][Ring1][Branch2_1][O][C][O][C][Branch1_1][Ring1][C][O][C][Branch1_1][Branch1_1][O][Branch1_1][C][C][C][Branch1_1][C][O][C][Ring1][O][N][C][Branch1_1][Ring1][C][O][O][C][Ring2][Ring1][Branch1_2][Branch1_1][C][C].[O][C][C][O],{[][<]*C[>][<]}{[>][<]O[>][<]}{[>][<]NC1COC(CO)CC1O[>][<]}{[>][<]O[>][<]}{[>][<]NC1COC(CO)CC1O[>][<]}{[>][<]*C[>][]}.OCCO
487,chitosan,55.1,50.0,ethylene_glycol,32.9,8.0,30,0.33,0.451030928,62.061856,NC2C(O)C(OC1OC(CO)C(O(C[*]))C(O)C1N)C(CO)OC2(C[*]),OCCO,"[0, 4, 10, 0, 6, 0, 2, 0, 0, 0, 4, 0, 0, 0, 0]",[N][C][C][Branch1_1][C][O][C][Branch2_1][Ring1][Branch2_1][O][C][O][C][Branch1_1][Ring1][C][O][C][Branch1_1][Branch1_1][O][Branch1_1][C][C][C][Branch1_1][C][O][C][Ring1][O][N][C][Branch1_1][Ring1][C][O][O][C][Ring2][Ring1][Branch1_2][Branch1_1][C][C],[O][C][C][O],{[][<]*C[>][<]}{[>][<]O[>][<]}{[>][<]NC1COC(CO)CC1O[>][<]}{[>][<]O[>][<]}{[>][<]NC1COC(CO)CC1O[>][<]}{[>][<]*C[>][]},NC2C(O)C(OC1OC(CO)C(O(C[*]))C(O)C1N)C(CO)OC2(C[*]).OCCO,[N][C][C][Branch1_1][C][O][C][Branch2_1][Ring1][Branch2_1][O][C][O][C][Branch1_1][Ring1][C][O][C][Branch1_1][Branch1_1][O][Branch1_1][C][C][C][Branch1_1][C][O][C][Ring1][O][N][C][Branch1_1][Ring1][C][O][O][C][Ring2][Ring1][Branch1_2][Branch1_1][C][C].[O][C][C][O],{[][<]*C[>][<]}{[>][<]O[>][<]}{[>][<]NC1COC(CO)CC1O[>][<]}{[>][<]O[>][<]}{[>][<]NC1COC(CO)CC1O[>][<]}{[>][<]*C[>][]}.OCCO
488,chitosan,55.1,50.0,ethylene_glycol,32.9,3.56,30,0.13,0.378,234.26,NC2C(O)C(OC1OC(CO)C(O(C[*]))C(O)C1N)C(CO)OC2(C[*]),OCCO,"[0, 4, 10, 0, 6, 0, 2, 0, 0, 0, 4, 0, 0, 0, 0]",[N][C][C][Branch1_1][C][O][C][Branch2_1][Ring1][Branch2_1][O][C][O][C][Branch1_1][Ring1][C][O][C][Branch1_1][Branch1_1][O][Branch1_1][C][C][C][Branch1_1][C][O][C][Ring1][O][N][C][Branch1_1][Ring1][C][O][O][C][Ring2][Ring1][Branch1_2][Branch1_1][C][C],[O][C][C][O],{[][<]*C[>][<]}{[>][<]O[>][<]}{[>][<]NC1COC(CO)CC1O[>][<]}{[>][<]O[>][<]}{[>][<]NC1COC(CO)CC1O[>][<]}{[>][<]*C[>][]},NC2C(O)C(OC1OC(CO)C(O(C[*]))C(O)C1N)C(CO)OC2(C[*]).OCCO,[N][C][C][Branch1_1][C][O][C][Branch2_1][Ring1][Branch2_1][O][C][O][C][Branch1_1][Ring1][C][O][C][Branch1_1][Branch1_1][O][Branch1_1][C][C][C][Branch1_1][C][O][C][Ring1][O][N][C][Branch1_1][Ring1][C][O][O][C][Ring2][Ring1][Branch1_2][Branch1_1][C][C].[O][C][C][O],{[][<]*C[>][<]}{[>][<]O[>][<]}{[>][<]NC1COC(CO)CC1O[>][<]}{[>][<]O[>][<]}{[>][<]NC1COC(CO)CC1O[>][<]}{[>][<]*C[>][]}.OCCO
489,chitosan,55.1,50.0,ethylene_glycol,32.9,7.03,30,0.13,0.45,61.674,NC2C(O)C(OC1OC(CO)C(O(C[*]))C(O)C1N)C(CO)OC2(C[*]),OCCO,"[0, 4, 10, 0, 6, 0, 2, 0, 0, 0, 4, 0, 0, 0, 0]",[N][C][C][Branch1_1][C][O][C][Branch2_1][Ring1][Branch2_1][O][C][O][C][Branch1_1][Ring1][C][O][C][Branch1_1][Branch1_1][O][Branch1_1][C][C][C][Branch1_1][C][O][C][Ring1][O][N][C][Branch1_1][Ring1][C][O][O][C][Ring2][Ring1][Branch1_2][Branch1_1][C][C],[O][C][C][O],{[][<]*C[>][<]}{[>][<]O[>][<]}{[>][<]NC1COC(CO)CC1O[>][<]}{[>][<]O[>][<]}{[>][<]NC1COC(CO)CC1O[>][<]}{[>][<]*C[>][]},NC2C(O)C(OC1OC(CO)C(O(C[*]))C(O)C1N)C(CO)OC2(C[*]).OCCO,[N][C][C][Branch1_1][C][O][C][Branch2_1][Ring1][Branch2_1][O][C][O][C][Branch1_1][Ring1][C][O][C][Branch1_1][Branch1_1][O][Branch1_1][C][C][C][Branch1_1][C][O][C][Ring1][O][N][C][Branch1_1][Ring1][C][O][O][C][Ring2][Ring1][Branch1_2][Branch1_1][C][C].[O][C][C][O],{[][<]*C[>][<]}{[>][<]O[>][<]}{[>][<]NC1COC(CO)CC1O[>][<]}{[>][<]O[>][<]}{[>][<]NC1COC(CO)CC1O[>][<]}{[>][<]*C[>][]}.OCCO
490,chitosan,55.1,50.0,ethylene_glycol,32.9,12.32,30,0.13,0.567,28.318,NC2C(O)C(OC1OC(CO)C(O(C[*]))C(O)C1N)C(CO)OC2(C[*]),OCCO,"[0, 4, 10, 0, 6, 0, 2, 0, 0, 0, 4, 0, 0, 0, 0]",[N][C][C][Branch1_1][C][O][C][Branch2_1][Ring1][Branch2_1][O][C][O][C][Branch1_1][Ring1][C][O][C][Branch1_1][Branch1_1][O][Branch1_1][C][C][C][Branch1_1][C][O][C][Ring1][O][N][C][Branch1_1][Ring1][C][O][O][C][Ring2][Ring1][Branch1_2][Branch1_1][C][C],[O][C][C][O],{[][<]*C[>][<]}{[>][<]O[>][<]}{[>][<]NC1COC(CO)CC1O[>][<]}{[>][<]O[>][<]}{[>][<]NC1COC(CO)CC1O[>][<]}{[>][<]*C[>][]},NC2C(O)C(OC1OC(CO)C(O(C[*]))C(O)C1N)C(CO)OC2(C[*]).OCCO,[N][C][C][Branch1_1][C][O][C][Branch2_1][Ring1][Branch2_1][O][C][O][C][Branch1_1][Ring1][C][O][C][Branch1_1][Branch1_1][O][Branch1_1][C][C][C][Branch1_1][C][O][C][Ring1][O][N][C][Branch1_1][Ring1][C][O][O][C][Ring2][Ring1][Branch1_2][Branch1_1][C][C].[O][C][C][O],{[][<]*C[>][<]}{[>][<]O[>][<]}{[>][<]NC1COC(CO)CC1O[>][<]}{[>][<]O[>][<]}{[>][<]NC1COC(CO)CC1O[>][<]}{[>][<]*C[>][]}.OCCO
491,chitosan,55.1,50.0,ethylene_glycol,32.9,24.47,30,0.13,0.702,8.077,NC2C(O)C(OC1OC(CO)C(O(C[*]))C(O)C1N)C(CO)OC2(C[*]),OCCO,"[0, 4, 10, 0, 6, 0, 2, 0, 0, 0, 4, 0, 0, 0, 0]",[N][C][C][Branch1_1][C][O][C][Branch2_1][Ring1][Branch2_1][O][C][O][C][Branch1_1][Ring1][C][O][C][Branch1_1][Branch1_1][O][Branch1_1][C][C][C][Branch1_1][C][O][C][Ring1][O][N][C][Branch1_1][Ring1][C][O][O][C][Ring2][Ring1][Branch1_2][Branch1_1][C][C],[O][C][C][O],{[][<]*C[>][<]}{[>][<]O[>][<]}{[>][<]NC1COC(CO)CC1O[>][<]}{[>][<]O[>][<]}{[>][<]NC1COC(CO)CC1O[>][<]}{[>][<]*C[>][]},NC2C(O)C(OC1OC(CO)C(O(C[*]))C(O)C1N)C(CO)OC2(C[*]).OCCO,[N][C][C][Branch1_1][C][O][C][Branch2_1][Ring1][Branch2_1][O][C][O][C][Branch1_1][Ring1][C][O][C][Branch1_1][Branch1_1][O][Branch1_1][C][C][C][Branch1_1][C][O][C][Ring1][O][N][C][Branch1_1][Ring1][C][O][O][C][Ring2][Ring1][Branch1_2][Branch1_1][C][C].[O][C][C][O],{[][<]*C[>][<]}{[>][<]O[>][<]}{[>][<]NC1COC(CO)CC1O[>][<]}{[>][<]O[>][<]}{[>][<]NC1COC(CO)CC1O[>][<]}{[>][<]*C[>][]}.OCCO
494,chitosan,55.1,30.0,ethylene_glycol,32.9,10.0,25,3.0,0.093,575.0,NC2C(O)C(OC1OC(CO)C(O(C[*]))C(O)C1N)C(CO)OC2(C[*]),OCCO,"[0, 4, 10, 0, 6, 0, 2, 0, 0, 0, 4, 0, 0, 0, 0]",[N][C][C][Branch1_1][C][O][C][Branch2_1][Ring1][Branch2_1][O][C][O][C][Branch1_1][Ring1][C][O][C][Branch1_1][Branch1_1][O][Branch1_1][C][C][C][Branch1_1][C][O][C][Ring1][O][N][C][Branch1_1][Ring1][C][O][O][C][Ring2][Ring1][Branch1_2][Branch1_1][C][C],[O][C][C][O],{[][<]*C[>][<]}{[>][<]O[>][<]}{[>][<]NC1COC(CO)CC1O[>][<]}{[>][<]O[>][<]}{[>][<]NC1COC(CO)CC1O[>][<]}{[>][<]*C[>][]},NC2C(O)C(OC1OC(CO)C(O(C[*]))C(O)C1N)C(CO)OC2(C[*]).OCCO,[N][C][C][Branch1_1][C][O][C][Branch2_1][Ring1][Branch2_1][O][C][O][C][Branch1_1][Ring1][C][O][C][Branch1_1][Branch1_1][O][Branch1_1][C][C][C][Branch1_1][C][O][C][Ring1][O][N][C][Branch1_1][Ring1][C][O][O][C][Ring2][Ring1][Branch1_2][Branch1_1][C][C].[O][C][C][O],{[][<]*C[>][<]}{[>][<]O[>][<]}{[>][<]NC1COC(CO)CC1O[>][<]}{[>][<]O[>][<]}{[>][<]NC1COC(CO)CC1O[>][<]}{[>][<]*C[>][]}.OCCO
495,pva,58.9,30.0,ethylene_glycol,32.9,10.0,25,3.0,0.12,354.0,C(*)C(*)(O),OCCO,"[0, 3, 1, 0, 3, 0, 0, 0, 0, 0, 0, 0, 0, 0, 0]",[C][Branch1_1][C][C][C][Branch1_1][C][C][Branch1_1][C][O],[O][C][C][O],{[][<]*C[>][<]}{[>][<]*CO[>][]},C(*)C(*)(O).OCCO,[C][Branch1_1][C][C][C][Branch1_1][C][C][Branch1_1][C][O].[O][C][C][O],{[][<]*C[>][<]}{[>][<]*CO[>][]}.OCCO
496,chitosan,55.1,30.0,ethylene_glycol,32.9,20.0,25,3.0,0.223076923,129.932719,NC2C(O)C(OC1OC(CO)C(O(C[*]))C(O)C1N)C(CO)OC2(C[*]),OCCO,"[0, 4, 10, 0, 6, 0, 2, 0, 0, 0, 4, 0, 0, 0, 0]",[N][C][C][Branch1_1][C][O][C][Branch2_1][Ring1][Branch2_1][O][C][O][C][Branch1_1][Ring1][C][O][C][Branch1_1][Branch1_1][O][Branch1_1][C][C][C][Branch1_1][C][O][C][Ring1][O][N][C][Branch1_1][Ring1][C][O][O][C][Ring2][Ring1][Branch1_2][Branch1_1][C][C],[O][C][C][O],{[][<]*C[>][<]}{[>][<]O[>][<]}{[>][<]NC1COC(CO)CC1O[>][<]}{[>][<]O[>][<]}{[>][<]NC1COC(CO)CC1O[>][<]}{[>][<]*C[>][]},NC2C(O)C(OC1OC(CO)C(O(C[*]))C(O)C1N)C(CO)OC2(C[*]).OCCO,[N][C][C][Branch1_1][C][O][C][Branch2_1][Ring1][Branch2_1][O][C][O][C][Branch1_1][Ring1][C][O][C][Branch1_1][Branch1_1][O][Branch1_1][C][C][C][Branch1_1][C][O][C][Ring1][O][N][C][Branch1_1][Ring1][C][O][O][C][Ring2][Ring1][Branch1_2][Branch1_1][C][C].[O][C][C][O],{[][<]*C[>][<]}{[>][<]O[>][<]}{[>][<]NC1COC(CO)CC1O[>][<]}{[>][<]O[>][<]}{[>][<]NC1COC(CO)CC1O[>][<]}{[>][<]*C[>][]}.OCCO