Index,Polymer,Contact_angle,Thickness_um,Solvent,Solvent_solubility_parameter_Mpa_sqrt,xw_wt_percent,Temp_C,Permeate_pressure_mbar,J_Total_flux_kg_m_2h_1,a_Separation_factor_wo,Polymer_SMILES,Solvent_SMILES,Sum_of_frags,Polymer_SELFIES,Solvent_SELFIES,Polymer_BigSMILES,PS_SMILES,PS_SELFIES,PS_BigSMILES
640,chitosan,55.1,18.0,ethanol,26.5,15.0,50,10.0,0.28,203.69,NC2C(O)C(OC1OC(CO)C(O(C[*]))C(O)C1N)C(CO)OC2(C[*]),CCO,"[1, 3, 10, 0, 5, 0, 2, 0, 0, 0, 4, 0, 0, 0, 0]",[N][C][C][Branch1_1][C][O][C][Branch2_1][Ring1][Branch2_1][O][C][O][C][Branch1_1][Ring1][C][O][C][Branch1_1][Branch1_1][O][Branch1_1][C][C][C][Branch1_1][C][O][C][Ring1][O][N][C][Branch1_1][Ring1][C][O][O][C][Ring2][Ring1][Branch1_2][Branch1_1][C][C],[C][C][O],{[][<]*C[>][<]}{[>][<]O[>][<]}{[>][<]NC1COC(CO)CC1O[>][<]}{[>][<]O[>][<]}{[>][<]NC1COC(CO)CC1O[>][<]}{[>][<]*C[>][]},NC2C(O)C(OC1OC(CO)C(O(C[*]))C(O)C1N)C(CO)OC2(C[*]).CCO,[N][C][C][Branch1_1][C][O][C][Branch2_1][Ring1][Branch2_1][O][C][O][C][Branch1_1][Ring1][C][O][C][Branch1_1][Branch1_1][O][Branch1_1][C][C][C][Branch1_1][C][O][C][Ring1][O][N][C][Branch1_1][Ring1][C][O][O][C][Ring2][Ring1][Branch1_2][Branch1_1][C][C].[C][C][O],{[][<]*C[>][<]}{[>][<]O[>][<]}{[>][<]NC1COC(CO)CC1O[>][<]}{[>][<]O[>][<]}{[>][<]NC1COC(CO)CC1O[>][<]}{[>][<]*C[>][]}.CCO
641,pdms,108.08219,200.0,ethanol,26.5,90.0,25,2.0,0.041,0.108578,*O[Si](*)(C)C,CCO,"[3, 1, 0, 0, 1, 0, 0, 0, 0, 0, 1, 0, 0, 1, 0]",[Siexpl][Branch1_1][C][C][Branch1_1][C][C][Branch1_1][C][C][O][Branch1_1][C][C],[C][C][O],{[][<]*O[>][<]}{[>][<]*[Si](C)C[>][]},*O[Si](*)(C)C.CCO,[Siexpl][Branch1_1][C][C][Branch1_1][C][C][Branch1_1][C][C][O][Branch1_1][C][C].[C][C][O],{[][<]*O[>][<]}{[>][<]*[Si](C)C[>][]}.CCO
642,ptmsp,100.0,84.43,ethanol,26.5,95.0,50,0.04,0.3041,0.041137,C/C(*)=C(*)/[Si](C)(C)C,CCO,"[5, 1, 0, 0, 1, 0, 0, 0, 0, 0, 0, 1, 0, 1, 0]",[C][/C][Branch1_1][C][C][=C][Branch1_1][C][C][/Siexpl][Branch1_1][C][C][Branch1_1][C][C][C],[C][C][O],{[][<]*CC[>][<]}{[>][<]*C[Si](C)(C)C[>][]},C/C(*)=C(*)/[Si](C)(C)C.CCO,[C][/C][Branch1_1][C][C][=C][Branch1_1][C][C][/Siexpl][Branch1_1][C][C][Branch1_1][C][C][C].[C][C][O],{[][<]*CC[>][<]}{[>][<]*C[Si](C)(C)C[>][]}.CCO
643,ptmsp,100.0,79.72,ethanol,26.5,95.0,50,0.04,0.3594,0.042361,C/C(*)=C(*)/[Si](C)(C)C,CCO,"[5, 1, 0, 0, 1, 0, 0, 0, 0, 0, 0, 1, 0, 1, 0]",[C][/C][Branch1_1][C][C][=C][Branch1_1][C][C][/Siexpl][Branch1_1][C][C][Branch1_1][C][C][C],[C][C][O],{[][<]*CC[>][<]}{[>][<]*C[Si](C)(C)C[>][]},C/C(*)=C(*)/[Si](C)(C)C.CCO,[C][/C][Branch1_1][C][C][=C][Branch1_1][C][C][/Siexpl][Branch1_1][C][C][Branch1_1][C][C][C].[C][C][O],{[][<]*CC[>][<]}{[>][<]*C[Si](C)(C)C[>][]}.CCO
644,ptmsp,100.0,44.34,ethanol,26.5,95.0,50,0.04,0.6359,0.041256,C/C(*)=C(*)/[Si](C)(C)C,CCO,"[5, 1, 0, 0, 1, 0, 0, 0, 0, 0, 0, 1, 0, 1, 0]",[C][/C][Branch1_1][C][C][=C][Branch1_1][C][C][/Siexpl][Branch1_1][C][C][Branch1_1][C][C][C],[C][C][O],{[][<]*CC[>][<]}{[>][<]*C[Si](C)(C)C[>][]},C/C(*)=C(*)/[Si](C)(C)C.CCO,[C][/C][Branch1_1][C][C][=C][Branch1_1][C][C][/Siexpl][Branch1_1][C][C][Branch1_1][C][C][C].[C][C][O],{[][<]*CC[>][<]}{[>][<]*C[Si](C)(C)C[>][]}.CCO
645,ptmsp,100.0,32.55,ethanol,26.5,95.0,50,0.04,0.8295,0.041497,C/C(*)=C(*)/[Si](C)(C)C,CCO,"[5, 1, 0, 0, 1, 0, 0, 0, 0, 0, 0, 1, 0, 1, 0]",[C][/C][Branch1_1][C][C][=C][Branch1_1][C][C][/Siexpl][Branch1_1][C][C][Branch1_1][C][C][C],[C][C][O],{[][<]*CC[>][<]}{[>][<]*C[Si](C)(C)C[>][]},C/C(*)=C(*)/[Si](C)(C)C.CCO,[C][/C][Branch1_1][C][C][=C][Branch1_1][C][C][/Siexpl][Branch1_1][C][C][Branch1_1][C][C][C].[C][C][O],{[][<]*CC[>][<]}{[>][<]*C[Si](C)(C)C[>][]}.CCO
647,ptmsp,100.0,14.96,ethanol,26.5,95.0,50,0.04,1.5246,0.044806,C/C(*)=C(*)/[Si](C)(C)C,CCO,"[5, 1, 0, 0, 1, 0, 0, 0, 0, 0, 0, 1, 0, 1, 0]",[C][/C][Branch1_1][C][C][=C][Branch1_1][C][C][/Siexpl][Branch1_1][C][C][Branch1_1][C][C][C],[C][C][O],{[][<]*CC[>][<]}{[>][<]*C[Si](C)(C)C[>][]},C/C(*)=C(*)/[Si](C)(C)C.CCO,[C][/C][Branch1_1][C][C][=C][Branch1_1][C][C][/Siexpl][Branch1_1][C][C][Branch1_1][C][C][C].[C][C][O],{[][<]*CC[>][<]}{[>][<]*C[Si](C)(C)C[>][]}.CCO
648,ptmsp,100.0,8.15,ethanol,26.5,95.0,50,0.04,2.6557,0.044975,C/C(*)=C(*)/[Si](C)(C)C,CCO,"[5, 1, 0, 0, 1, 0, 0, 0, 0, 0, 0, 1, 0, 1, 0]",[C][/C][Branch1_1][C][C][=C][Branch1_1][C][C][/Siexpl][Branch1_1][C][C][Branch1_1][C][C][C],[C][C][O],{[][<]*CC[>][<]}{[>][<]*C[Si](C)(C)C[>][]},C/C(*)=C(*)/[Si](C)(C)C.CCO,[C][/C][Branch1_1][C][C][=C][Branch1_1][C][C][/Siexpl][Branch1_1][C][C][Branch1_1][C][C][C].[C][C][O],{[][<]*CC[>][<]}{[>][<]*C[Si](C)(C)C[>][]}.CCO
649,ptmsp,100.0,7.82,ethanol,26.5,95.0,50,0.04,2.459,0.047861,C/C(*)=C(*)/[Si](C)(C)C,CCO,"[5, 1, 0, 0, 1, 0, 0, 0, 0, 0, 0, 1, 0, 1, 0]",[C][/C][Branch1_1][C][C][=C][Branch1_1][C][C][/Siexpl][Branch1_1][C][C][Branch1_1][C][C][C],[C][C][O],{[][<]*CC[>][<]}{[>][<]*C[Si](C)(C)C[>][]},C/C(*)=C(*)/[Si](C)(C)C.CCO,[C][/C][Branch1_1][C][C][=C][Branch1_1][C][C][/Siexpl][Branch1_1][C][C][Branch1_1][C][C][C].[C][C][O],{[][<]*CC[>][<]}{[>][<]*C[Si](C)(C)C[>][]}.CCO
650,ptmsp,100.0,4.37,ethanol,26.5,95.0,50,0.04,3.9344,0.048641,C/C(*)=C(*)/[Si](C)(C)C,CCO,"[5, 1, 0, 0, 1, 0, 0, 0, 0, 0, 0, 1, 0, 1, 0]",[C][/C][Branch1_1][C][C][=C][Branch1_1][C][C][/Siexpl][Branch1_1][C][C][Branch1_1][C][C][C],[C][C][O],{[][<]*CC[>][<]}{[>][<]*C[Si](C)(C)C[>][]},C/C(*)=C(*)/[Si](C)(C)C.CCO,[C][/C][Branch1_1][C][C][=C][Branch1_1][C][C][/Siexpl][Branch1_1][C][C][Branch1_1][C][C][C].[C][C][O],{[][<]*CC[>][<]}{[>][<]*C[Si](C)(C)C[>][]}.CCO
651,ptmsp,100.0,4.37,ethanol,26.5,95.0,50,0.04,4.0328,0.053673,C/C(*)=C(*)/[Si](C)(C)C,CCO,"[5, 1, 0, 0, 1, 0, 0, 0, 0, 0, 0, 1, 0, 1, 0]",[C][/C][Branch1_1][C][C][=C][Branch1_1][C][C][/Siexpl][Branch1_1][C][C][Branch1_1][C][C][C],[C][C][O],{[][<]*CC[>][<]}{[>][<]*C[Si](C)(C)C[>][]},C/C(*)=C(*)/[Si](C)(C)C.CCO,[C][/C][Branch1_1][C][C][=C][Branch1_1][C][C][/Siexpl][Branch1_1][C][C][Branch1_1][C][C][C].[C][C][O],{[][<]*CC[>][<]}{[>][<]*C[Si](C)(C)C[>][]}.CCO
652,pdms,108.08219,4.0,ethanol,26.5,95.0,50,0.04,1.3,0.140845,*O[Si](*)(C)C,CCO,"[3, 1, 0, 0, 1, 0, 0, 0, 0, 0, 1, 0, 0, 1, 0]",[Siexpl][Branch1_1][C][C][Branch1_1][C][C][Branch1_1][C][C][O][Branch1_1][C][C],[C][C][O],{[][<]*O[>][<]}{[>][<]*[Si](C)C[>][]},*O[Si](*)(C)C.CCO,[Siexpl][Branch1_1][C][C][Branch1_1][C][C][Branch1_1][C][C][O][Branch1_1][C][C].[C][C][O],{[][<]*O[>][<]}{[>][<]*[Si](C)C[>][]}.CCO
653,pdms,108.08219,4.0,ethanol,26.5,95.0,50,0.04,2.6,0.149254,*O[Si](*)(C)C,CCO,"[3, 1, 0, 0, 1, 0, 0, 0, 0, 0, 1, 0, 0, 1, 0]",[Siexpl][Branch1_1][C][C][Branch1_1][C][C][Branch1_1][C][C][O][Branch1_1][C][C],[C][C][O],{[][<]*O[>][<]}{[>][<]*[Si](C)C[>][]},*O[Si](*)(C)C.CCO,[Siexpl][Branch1_1][C][C][Branch1_1][C][C][Branch1_1][C][C][O][Branch1_1][C][C].[C][C][O],{[][<]*O[>][<]}{[>][<]*[Si](C)C[>][]}.CCO
654,ptmsp,100.0,2.35,ethanol,26.5,95.0,50,0.04,5.2623,0.052263,C/C(*)=C(*)/[Si](C)(C)C,CCO,"[5, 1, 0, 0, 1, 0, 0, 0, 0, 0, 0, 1, 0, 1, 0]",[C][/C][Branch1_1][C][C][=C][Branch1_1][C][C][/Siexpl][Branch1_1][C][C][Branch1_1][C][C][C],[C][C][O],{[][<]*CC[>][<]}{[>][<]*C[Si](C)(C)C[>][]},C/C(*)=C(*)/[Si](C)(C)C.CCO,[C][/C][Branch1_1][C][C][=C][Branch1_1][C][C][/Siexpl][Branch1_1][C][C][Branch1_1][C][C][C].[C][C][O],{[][<]*CC[>][<]}{[>][<]*C[Si](C)(C)C[>][]}.CCO
657,ptmsp,100.0,1.43,ethanol,26.5,95.0,50,0.04,5.9508,0.064043,C/C(*)=C(*)/[Si](C)(C)C,CCO,"[5, 1, 0, 0, 1, 0, 0, 0, 0, 0, 0, 1, 0, 1, 0]",[C][/C][Branch1_1][C][C][=C][Branch1_1][C][C][/Siexpl][Branch1_1][C][C][Branch1_1][C][C][C],[C][C][O],{[][<]*CC[>][<]}{[>][<]*C[Si](C)(C)C[>][]},C/C(*)=C(*)/[Si](C)(C)C.CCO,[C][/C][Branch1_1][C][C][=C][Branch1_1][C][C][/Siexpl][Branch1_1][C][C][Branch1_1][C][C][C].[C][C][O],{[][<]*CC[>][<]}{[>][<]*C[Si](C)(C)C[>][]}.CCO
658,pdms,108.08219,100.0,ethanol,26.5,95.0,50,4.0,0.0967,0.123977,*O[Si](*)(C)C,CCO,"[3, 1, 0, 0, 1, 0, 0, 0, 0, 0, 1, 0, 0, 1, 0]",[Siexpl][Branch1_1][C][C][Branch1_1][C][C][Branch1_1][C][C][O][Branch1_1][C][C],[C][C][O],{[][<]*O[>][<]}{[>][<]*[Si](C)C[>][]},*O[Si](*)(C)C.CCO,[Siexpl][Branch1_1][C][C][Branch1_1][C][C][Branch1_1][C][C][O][Branch1_1][C][C].[C][C][O],{[][<]*O[>][<]}{[>][<]*[Si](C)C[>][]}.CCO
659,pdms,108.08219,120.0,ethanol,26.5,94.0,40,1.0,0.027,0.114943,*O[Si](*)(C)C,CCO,"[3, 1, 0, 0, 1, 0, 0, 0, 0, 0, 1, 0, 0, 1, 0]",[Siexpl][Branch1_1][C][C][Branch1_1][C][C][Branch1_1][C][C][O][Branch1_1][C][C],[C][C][O],{[][<]*O[>][<]}{[>][<]*[Si](C)C[>][]},*O[Si](*)(C)C.CCO,[Siexpl][Branch1_1][C][C][Branch1_1][C][C][Branch1_1][C][C][O][Branch1_1][C][C].[C][C][O],{[][<]*O[>][<]}{[>][<]*[Si](C)C[>][]}.CCO
660,pva,69.6,40.0,ethanol,26.5,10.0,40,3.5,0.0791,519.756839,C(*)C(*)(O),CCO,"[1, 2, 1, 0, 2, 0, 0, 0, 0, 0, 0, 0, 0, 0, 0]",[C][Branch1_1][C][C][C][Branch1_1][C][C][Branch1_1][C][O],[C][C][O],{[][<]*C[>][<]}{[>][<]*CO[>][]},C(*)C(*)(O).CCO,[C][Branch1_1][C][C][C][Branch1_1][C][C][Branch1_1][C][O].[C][C][O],{[][<]*C[>][<]}{[>][<]*CO[>][]}.CCO
661,pva,69.6,40.0,ethanol,26.5,10.0,50,3.5,0.086,395.744681,C(*)C(*)(O),CCO,"[1, 2, 1, 0, 2, 0, 0, 0, 0, 0, 0, 0, 0, 0, 0]",[C][Branch1_1][C][C][C][Branch1_1][C][C][Branch1_1][C][O],[C][C][O],{[][<]*C[>][<]}{[>][<]*CO[>][]},C(*)C(*)(O).CCO,[C][Branch1_1][C][C][C][Branch1_1][C][C][Branch1_1][C][O].[C][C][O],{[][<]*C[>][<]}{[>][<]*CO[>][]}.CCO
663,pva,69.6,40.0,ethanol,26.5,10.0,70,3.5,0.1308,164.133739,C(*)C(*)(O),CCO,"[1, 2, 1, 0, 2, 0, 0, 0, 0, 0, 0, 0, 0, 0, 0]",[C][Branch1_1][C][C][C][Branch1_1][C][C][Branch1_1][C][O],[C][C][O],{[][<]*C[>][<]}{[>][<]*CO[>][]},C(*)C(*)(O).CCO,[C][Branch1_1][C][C][C][Branch1_1][C][C][Branch1_1][C][O].[C][C][O],{[][<]*C[>][<]}{[>][<]*CO[>][]}.CCO
665,chitosan,41.21,25.0,ethanol,26.5,10.0,80,1.0,0.0548,158.2938,NC2C(O)C(OC1OC(CO)C(O(C[*]))C(O)C1N)C(CO)OC2(C[*]),CCO,"[1, 3, 10, 0, 5, 0, 2, 0, 0, 0, 4, 0, 0, 0, 0]",[N][C][C][Branch1_1][C][O][C][Branch2_1][Ring1][Branch2_1][O][C][O][C][Branch1_1][Ring1][C][O][C][Branch1_1][Branch1_1][O][Branch1_1][C][C][C][Branch1_1][C][O][C][Ring1][O][N][C][Branch1_1][Ring1][C][O][O][C][Ring2][Ring1][Branch1_2][Branch1_1][C][C],[C][C][O],{[][<]*C[>][<]}{[>][<]O[>][<]}{[>][<]NC1COC(CO)CC1O[>][<]}{[>][<]O[>][<]}{[>][<]NC1COC(CO)CC1O[>][<]}{[>][<]*C[>][]},NC2C(O)C(OC1OC(CO)C(O(C[*]))C(O)C1N)C(CO)OC2(C[*]).CCO,[N][C][C][Branch1_1][C][O][C][Branch2_1][Ring1][Branch2_1][O][C][O][C][Branch1_1][Ring1][C][O][C][Branch1_1][Branch1_1][O][Branch1_1][C][C][C][Branch1_1][C][O][C][Ring1][O][N][C][Branch1_1][Ring1][C][O][O][C][Ring2][Ring1][Branch1_2][Branch1_1][C][C].[C][C][O],{[][<]*C[>][<]}{[>][<]O[>][<]}{[>][<]NC1COC(CO)CC1O[>][<]}{[>][<]O[>][<]}{[>][<]NC1COC(CO)CC1O[>][<]}{[>][<]*C[>][]}.CCO
666,alginate,38.74,28.0,ethanol,26.5,3.0,25,3.0,0.1504,64.779874,O=C(O)C1OC(C[*])C(O)C(O)C1O(C[*]),CCO,"[1, 1, 10, 2, 7, 0, 0, 0, 0, 0, 4, 0, 0, 0, 0]",[O][=C][Branch1_1][C][O][C][O][C][Branch1_1][C][C][C][Branch1_1][C][O][C][Branch1_1][C][O][C][Ring1][Branch2_2][O][Branch1_1][C][C].[O][=C][Branch1_1][C][O][C][O][C][Branch1_1][C][C][C][Branch1_1][C][O][C][Branch1_1][C][O][C][Ring1][Branch2_2][O][Branch1_1][C][C],[C][C][O],{[][<]*C[>][<]}{[>][<]O=C(O)C1CC(O)C(O)CO1[>][<]}{[>][<]O[>][<]}{[>][<]*C[>][]},O=C(O)C1OC(C[*])C(O)C(O)C1O(C[*]).CCO,[O][=C][Branch1_1][C][O][C][O][C][Branch1_1][C][C][C][Branch1_1][C][O][C][Branch1_1][C][O][C][Ring1][Branch2_2][O][Branch1_1][C][C].[O][=C][Branch1_1][C][O][C][O][C][Branch1_1][C][C][C][Branch1_1][C][O][C][Branch1_1][C][O][C][Ring1][Branch2_2][O][Branch1_1][C][C].[C][C][O],{[][<]*C[>][<]}{[>][<]O=C(O)C1CC(O)C(O)CO1[>][<]}{[>][<]O[>][<]}{[>][<]*C[>][]}.CCO
667,alginate,31.43,28.0,ethanol,26.5,3.0,25,3.0,0.1698,27.044025,O=C(O)C1OC(C[*])C(O)C(O)C1O(C[*]),CCO,"[1, 1, 10, 2, 7, 0, 0, 0, 0, 0, 4, 0, 0, 0, 0]",[O][=C][Branch1_1][C][O][C][O][C][Branch1_1][C][C][C][Branch1_1][C][O][C][Branch1_1][C][O][C][Ring1][Branch2_2][O][Branch1_1][C][C].[O][=C][Branch1_1][C][O][C][O][C][Branch1_1][C][C][C][Branch1_1][C][O][C][Branch1_1][C][O][C][Ring1][Branch2_2][O][Branch1_1][C][C],[C][C][O],{[][<]*C[>][<]}{[>][<]O=C(O)C1CC(O)C(O)CO1[>][<]}{[>][<]O[>][<]}{[>][<]*C[>][]},O=C(O)C1OC(C[*])C(O)C(O)C1O(C[*]).CCO,[O][=C][Branch1_1][C][O][C][O][C][Branch1_1][C][C][C][Branch1_1][C][O][C][Branch1_1][C][O][C][Ring1][Branch2_2][O][Branch1_1][C][C].[O][=C][Branch1_1][C][O][C][O][C][Branch1_1][C][C][C][Branch1_1][C][O][C][Branch1_1][C][O][C][Ring1][Branch2_2][O][Branch1_1][C][C].[C][C][O],{[][<]*C[>][<]}{[>][<]O=C(O)C1CC(O)C(O)CO1[>][<]}{[>][<]O[>][<]}{[>][<]*C[>][]}.CCO
668,alginate,55.57,28.0,ethanol,26.5,3.0,25,3.0,0.2589,23.27044,O=C(O)C1OC(C[*])C(O)C(O)C1O(C[*]),CCO,"[1, 1, 10, 2, 7, 0, 0, 0, 0, 0, 4, 0, 0, 0, 0]",[O][=C][Branch1_1][C][O][C][O][C][Branch1_1][C][C][C][Branch1_1][C][O][C][Branch1_1][C][O][C][Ring1][Branch2_2][O][Branch1_1][C][C].[O][=C][Branch1_1][C][O][C][O][C][Branch1_1][C][C][C][Branch1_1][C][O][C][Branch1_1][C][O][C][Ring1][Branch2_2][O][Branch1_1][C][C],[C][C][O],{[][<]*C[>][<]}{[>][<]O=C(O)C1CC(O)C(O)CO1[>][<]}{[>][<]O[>][<]}{[>][<]*C[>][]},O=C(O)C1OC(C[*])C(O)C(O)C1O(C[*]).CCO,[O][=C][Branch1_1][C][O][C][O][C][Branch1_1][C][C][C][Branch1_1][C][O][C][Branch1_1][C][O][C][Ring1][Branch2_2][O][Branch1_1][C][C].[O][=C][Branch1_1][C][O][C][O][C][Branch1_1][C][C][C][Branch1_1][C][O][C][Branch1_1][C][O][C][Ring1][Branch2_2][O][Branch1_1][C][C].[C][C][O],{[][<]*C[>][<]}{[>][<]O=C(O)C1CC(O)C(O)CO1[>][<]}{[>][<]O[>][<]}{[>][<]*C[>][]}.CCO
669,alginate,34.04,28.0,ethanol,26.5,3.0,25,3.0,0.2705,55.974843,O=C(O)C1OC(C[*])C(O)C(O)C1O(C[*]),CCO,"[1, 1, 10, 2, 7, 0, 0, 0, 0, 0, 4, 0, 0, 0, 0]",[O][=C][Branch1_1][C][O][C][O][C][Branch1_1][C][C][C][Branch1_1][C][O][C][Branch1_1][C][O][C][Ring1][Branch2_2][O][Branch1_1][C][C].[O][=C][Branch1_1][C][O][C][O][C][Branch1_1][C][C][C][Branch1_1][C][O][C][Branch1_1][C][O][C][Ring1][Branch2_2][O][Branch1_1][C][C],[C][C][O],{[][<]*C[>][<]}{[>][<]O=C(O)C1CC(O)C(O)CO1[>][<]}{[>][<]O[>][<]}{[>][<]*C[>][]},O=C(O)C1OC(C[*])C(O)C(O)C1O(C[*]).CCO,[O][=C][Branch1_1][C][O][C][O][C][Branch1_1][C][C][C][Branch1_1][C][O][C][Branch1_1][C][O][C][Ring1][Branch2_2][O][Branch1_1][C][C].[O][=C][Branch1_1][C][O][C][O][C][Branch1_1][C][C][C][Branch1_1][C][O][C][Branch1_1][C][O][C][Ring1][Branch2_2][O][Branch1_1][C][C].[C][C][O],{[][<]*C[>][<]}{[>][<]O=C(O)C1CC(O)C(O)CO1[>][<]}{[>][<]O[>][<]}{[>][<]*C[>][]}.CCO
670,pva,59.0,45.0,ethanol,26.5,30.0,22,0.3,0.0322,214.507772,C(*)C(*)(O),CCO,"[1, 2, 1, 0, 2, 0, 0, 0, 0, 0, 0, 0, 0, 0, 0]",[C][Branch1_1][C][C][C][Branch1_1][C][C][Branch1_1][C][O],[C][C][O],{[][<]*C[>][<]}{[>][<]*CO[>][]},C(*)C(*)(O).CCO,[C][Branch1_1][C][C][C][Branch1_1][C][C][Branch1_1][C][O].[C][C][O],{[][<]*C[>][<]}{[>][<]*CO[>][]}.CCO
671,pva,59.0,45.0,ethanol,26.5,50.0,22,0.3,0.1074,55.958549,C(*)C(*)(O),CCO,"[1, 2, 1, 0, 2, 0, 0, 0, 0, 0, 0, 0, 0, 0, 0]",[C][Branch1_1][C][C][C][Branch1_1][C][C][Branch1_1][C][O],[C][C][O],{[][<]*C[>][<]}{[>][<]*CO[>][]},C(*)C(*)(O).CCO,[C][Branch1_1][C][C][C][Branch1_1][C][C][Branch1_1][C][O].[C][C][O],{[][<]*C[>][<]}{[>][<]*CO[>][]}.CCO
672,pva,70.0,45.0,ethanol,26.5,30.0,22,0.3,0.1202,9.326425,C(*)C(*)(O),CCO,"[1, 2, 1, 0, 2, 0, 0, 0, 0, 0, 0, 0, 0, 0, 0]",[C][Branch1_1][C][C][C][Branch1_1][C][C][Branch1_1][C][O],[C][C][O],{[][<]*C[>][<]}{[>][<]*CO[>][]},C(*)C(*)(O).CCO,[C][Branch1_1][C][C][C][Branch1_1][C][C][Branch1_1][C][O].[C][C][O],{[][<]*C[>][<]}{[>][<]*CO[>][]}.CCO
675,pdms,108.08219,9.5,ethanol,26.5,94.0,30,3.0,0.6523,0.121368,*O[Si](*)(C)C,CCO,"[3, 1, 0, 0, 1, 0, 0, 0, 0, 0, 1, 0, 0, 1, 0]",[Siexpl][Branch1_1][C][C][Branch1_1][C][C][Branch1_1][C][C][O][Branch1_1][C][C],[C][C][O],{[][<]*O[>][<]}{[>][<]*[Si](C)C[>][]},*O[Si](*)(C)C.CCO,[Siexpl][Branch1_1][C][C][Branch1_1][C][C][Branch1_1][C][C][O][Branch1_1][C][C].[C][C][O],{[][<]*O[>][<]}{[>][<]*[Si](C)C[>][]}.CCO
676,pdms,108.08219,9.5,ethanol,26.5,94.0,40,3.0,0.9112,0.123478,*O[Si](*)(C)C,CCO,"[3, 1, 0, 0, 1, 0, 0, 0, 0, 0, 1, 0, 0, 1, 0]",[Siexpl][Branch1_1][C][C][Branch1_1][C][C][Branch1_1][C][C][O][Branch1_1][C][C],[C][C][O],{[][<]*O[>][<]}{[>][<]*[Si](C)C[>][]},*O[Si](*)(C)C.CCO,[Siexpl][Branch1_1][C][C][Branch1_1][C][C][Branch1_1][C][C][O][Branch1_1][C][C].[C][C][O],{[][<]*O[>][<]}{[>][<]*[Si](C)C[>][]}.CCO
677,pdms,108.08219,9.5,ethanol,26.5,94.0,50,3.0,1.3071,0.118006,*O[Si](*)(C)C,CCO,"[3, 1, 0, 0, 1, 0, 0, 0, 0, 0, 1, 0, 0, 1, 0]",[Siexpl][Branch1_1][C][C][Branch1_1][C][C][Branch1_1][C][C][O][Branch1_1][C][C],[C][C][O],{[][<]*O[>][<]}{[>][<]*[Si](C)C[>][]},*O[Si](*)(C)C.CCO,[Siexpl][Branch1_1][C][C][Branch1_1][C][C][Branch1_1][C][C][O][Branch1_1][C][C].[C][C][O],{[][<]*O[>][<]}{[>][<]*[Si](C)C[>][]}.CCO
678,pdms,108.08219,9.5,ethanol,26.5,94.0,60,3.0,1.8706,0.114516,*O[Si](*)(C)C,CCO,"[3, 1, 0, 0, 1, 0, 0, 0, 0, 0, 1, 0, 0, 1, 0]",[Siexpl][Branch1_1][C][C][Branch1_1][C][C][Branch1_1][C][C][O][Branch1_1][C][C],[C][C][O],{[][<]*O[>][<]}{[>][<]*[Si](C)C[>][]},*O[Si](*)(C)C.CCO,[Siexpl][Branch1_1][C][C][Branch1_1][C][C][Branch1_1][C][C][O][Branch1_1][C][C].[C][C][O],{[][<]*O[>][<]}{[>][<]*[Si](C)C[>][]}.CCO
680,pdms,108.08219,87.5,ethanol,26.5,95.0,30,0.667,0.0319,0.1,*O[Si](*)(C)C,CCO,"[3, 1, 0, 0, 1, 0, 0, 0, 0, 0, 1, 0, 0, 1, 0]",[Siexpl][Branch1_1][C][C][Branch1_1][C][C][Branch1_1][C][C][O][Branch1_1][C][C],[C][C][O],{[][<]*O[>][<]}{[>][<]*[Si](C)C[>][]},*O[Si](*)(C)C.CCO,[Siexpl][Branch1_1][C][C][Branch1_1][C][C][Branch1_1][C][C][O][Branch1_1][C][C].[C][C][O],{[][<]*O[>][<]}{[>][<]*[Si](C)C[>][]}.CCO
681,pdms,108.08219,6.0,ethanol,26.5,95.0,30,0.667,0.625333333,0.111111,*O[Si](*)(C)C,CCO,"[3, 1, 0, 0, 1, 0, 0, 0, 0, 0, 1, 0, 0, 1, 0]",[Siexpl][Branch1_1][C][C][Branch1_1][C][C][Branch1_1][C][C][O][Branch1_1][C][C],[C][C][O],{[][<]*O[>][<]}{[>][<]*[Si](C)C[>][]},*O[Si](*)(C)C.CCO,[Siexpl][Branch1_1][C][C][Branch1_1][C][C][Branch1_1][C][C][O][Branch1_1][C][C].[C][C][O],{[][<]*O[>][<]}{[>][<]*[Si](C)C[>][]}.CCO