Index,Polymer,Contact_angle,Thickness_um,Solvent,Solvent_solubility_parameter_Mpa_sqrt,xw_wt_percent,Temp_C,Permeate_pressure_mbar,J_Total_flux_kg_m_2h_1,a_Separation_factor_wo,Polymer_SMILES,Solvent_SMILES,Sum_of_frags,Polymer_SELFIES,Solvent_SELFIES,Polymer_BigSMILES,PS_SMILES,PS_SELFIES,PS_BigSMILES
19,pbo,82.0,24.24,n-butanol,23.1,15.0,25,1.0,0.0331,1044.555556,FC(F)(F)C(c1ccc([*])cc1)(c6ccc(c5nc4ccc(c3ccc2nc([*])oc2c3)cc4o5)cc6)C(F)(F)F,CCCCO,"[1, 3, 0, 0, 1, 3, 0, 0, 2, 4, 0, 0, 0, 0, 2]",[F][C][Branch1_1][C][F][Branch1_1][C][F][C][Branch1_1][N][C][=C][C][=C][Branch1_1][C][C][C][=C][Ring1][Branch1_3][Branch2_1][Ring2][=N][C][=C][C][=C][Branch2_1][Ring1][P][C][=N][C][=C][C][=C][Branch1_1][P][C][=C][C][=C][N][=C][Branch1_1][C][C][O][C][Ring1][Branch1_2][=C][Ring1][Branch2_3][C][=C][Ring1][S][O][Ring2][Ring1][Ring1][C][=C][Ring2][Ring1][Branch2_2][C][Branch1_1][C][F][Branch1_1][C][F][F],[C][C][C][C][O],{[][<]*c1ccccc1[>][<]}{[>][<]FC(F)(F)CC(F)(F)F[>][<]}{[>][<]c1ccccc1[>][<]}{[>][<]c1ccc2ocnc2c1[>][<]}{[>][<]*c1nc2ccccc2o1[>][]},FC(F)(F)C(c1ccc([*])cc1)(c6ccc(c5nc4ccc(c3ccc2nc([*])oc2c3)cc4o5)cc6)C(F)(F)F.CCCCO,[F][C][Branch1_1][C][F][Branch1_1][C][F][C][Branch1_1][N][C][=C][C][=C][Branch1_1][C][C][C][=C][Ring1][Branch1_3][Branch2_1][Ring2][=N][C][=C][C][=C][Branch2_1][Ring1][P][C][=N][C][=C][C][=C][Branch1_1][P][C][=C][C][=C][N][=C][Branch1_1][C][C][O][C][Ring1][Branch1_2][=C][Ring1][Branch2_3][C][=C][Ring1][S][O][Ring2][Ring1][Ring1][C][=C][Ring2][Ring1][Branch2_2][C][Branch1_1][C][F][Branch1_1][C][F][F].[C][C][C][C][O],{[][<]*c1ccccc1[>][<]}{[>][<]FC(F)(F)CC(F)(F)F[>][<]}{[>][<]c1ccccc1[>][<]}{[>][<]c1ccc2ocnc2c1[>][<]}{[>][<]*c1nc2ccccc2o1[>][]}.CCCCO
20,pbo,82.0,24.24,n-butanol,23.1,15.0,25,1.0,0.0345,1569.666667,FC(F)(F)C(c1ccc([*])cc1)(c6ccc(c5nc4ccc(c3ccc2nc([*])oc2c3)cc4o5)cc6)C(F)(F)F,CCCCO,"[1, 3, 0, 0, 1, 3, 0, 0, 2, 4, 0, 0, 0, 0, 2]",[F][C][Branch1_1][C][F][Branch1_1][C][F][C][Branch1_1][N][C][=C][C][=C][Branch1_1][C][C][C][=C][Ring1][Branch1_3][Branch2_1][Ring2][=N][C][=C][C][=C][Branch2_1][Ring1][P][C][=N][C][=C][C][=C][Branch1_1][P][C][=C][C][=C][N][=C][Branch1_1][C][C][O][C][Ring1][Branch1_2][=C][Ring1][Branch2_3][C][=C][Ring1][S][O][Ring2][Ring1][Ring1][C][=C][Ring2][Ring1][Branch2_2][C][Branch1_1][C][F][Branch1_1][C][F][F],[C][C][C][C][O],{[][<]*c1ccccc1[>][<]}{[>][<]FC(F)(F)CC(F)(F)F[>][<]}{[>][<]c1ccccc1[>][<]}{[>][<]c1ccc2ocnc2c1[>][<]}{[>][<]*c1nc2ccccc2o1[>][]},FC(F)(F)C(c1ccc([*])cc1)(c6ccc(c5nc4ccc(c3ccc2nc([*])oc2c3)cc4o5)cc6)C(F)(F)F.CCCCO,[F][C][Branch1_1][C][F][Branch1_1][C][F][C][Branch1_1][N][C][=C][C][=C][Branch1_1][C][C][C][=C][Ring1][Branch1_3][Branch2_1][Ring2][=N][C][=C][C][=C][Branch2_1][Ring1][P][C][=N][C][=C][C][=C][Branch1_1][P][C][=C][C][=C][N][=C][Branch1_1][C][C][O][C][Ring1][Branch1_2][=C][Ring1][Branch2_3][C][=C][Ring1][S][O][Ring2][Ring1][Ring1][C][=C][Ring2][Ring1][Branch2_2][C][Branch1_1][C][F][Branch1_1][C][F][F].[C][C][C][C][O],{[][<]*c1ccccc1[>][<]}{[>][<]FC(F)(F)CC(F)(F)F[>][<]}{[>][<]c1ccccc1[>][<]}{[>][<]c1ccc2ocnc2c1[>][<]}{[>][<]*c1nc2ccccc2o1[>][]}.CCCCO
23,pbo,82.0,24.24,ipa,23.5,15.0,25,1.0,0.0576,1569.666667,FC(F)(F)C(c1ccc([*])cc1)(c6ccc(c5nc4ccc(c3ccc2nc([*])oc2c3)cc4o5)cc6)C(F)(F)F,CC(C)O,"[2, 0, 1, 0, 1, 3, 0, 0, 2, 4, 0, 0, 0, 0, 2]",[F][C][Branch1_1][C][F][Branch1_1][C][F][C][Branch1_1][N][C][=C][C][=C][Branch1_1][C][C][C][=C][Ring1][Branch1_3][Branch2_1][Ring2][=N][C][=C][C][=C][Branch2_1][Ring1][P][C][=N][C][=C][C][=C][Branch1_1][P][C][=C][C][=C][N][=C][Branch1_1][C][C][O][C][Ring1][Branch1_2][=C][Ring1][Branch2_3][C][=C][Ring1][S][O][Ring2][Ring1][Ring1][C][=C][Ring2][Ring1][Branch2_2][C][Branch1_1][C][F][Branch1_1][C][F][F],[C][C][Branch1_1][C][C][O],{[][<]*c1ccccc1[>][<]}{[>][<]FC(F)(F)CC(F)(F)F[>][<]}{[>][<]c1ccccc1[>][<]}{[>][<]c1ccc2ocnc2c1[>][<]}{[>][<]*c1nc2ccccc2o1[>][]},FC(F)(F)C(c1ccc([*])cc1)(c6ccc(c5nc4ccc(c3ccc2nc([*])oc2c3)cc4o5)cc6)C(F)(F)F.CC(C)O,[F][C][Branch1_1][C][F][Branch1_1][C][F][C][Branch1_1][N][C][=C][C][=C][Branch1_1][C][C][C][=C][Ring1][Branch1_3][Branch2_1][Ring2][=N][C][=C][C][=C][Branch2_1][Ring1][P][C][=N][C][=C][C][=C][Branch1_1][P][C][=C][C][=C][N][=C][Branch1_1][C][C][O][C][Ring1][Branch1_2][=C][Ring1][Branch2_3][C][=C][Ring1][S][O][Ring2][Ring1][Ring1][C][=C][Ring2][Ring1][Branch2_2][C][Branch1_1][C][F][Branch1_1][C][F][F].[C][C][Branch1_1][C][C][O],{[][<]*c1ccccc1[>][<]}{[>][<]FC(F)(F)CC(F)(F)F[>][<]}{[>][<]c1ccccc1[>][<]}{[>][<]c1ccc2ocnc2c1[>][<]}{[>][<]*c1nc2ccccc2o1[>][]}.CC(C)O
24,pbo,82.0,24.24,n-butanol,23.1,10.0,80,1.0,0.0577,459.0,FC(F)(F)C(c1ccc([*])cc1)(c6ccc(c5nc4ccc(c3ccc2nc([*])oc2c3)cc4o5)cc6)C(F)(F)F,CCCCO,"[1, 3, 0, 0, 1, 3, 0, 0, 2, 4, 0, 0, 0, 0, 2]",[F][C][Branch1_1][C][F][Branch1_1][C][F][C][Branch1_1][N][C][=C][C][=C][Branch1_1][C][C][C][=C][Ring1][Branch1_3][Branch2_1][Ring2][=N][C][=C][C][=C][Branch2_1][Ring1][P][C][=N][C][=C][C][=C][Branch1_1][P][C][=C][C][=C][N][=C][Branch1_1][C][C][O][C][Ring1][Branch1_2][=C][Ring1][Branch2_3][C][=C][Ring1][S][O][Ring2][Ring1][Ring1][C][=C][Ring2][Ring1][Branch2_2][C][Branch1_1][C][F][Branch1_1][C][F][F],[C][C][C][C][O],{[][<]*c1ccccc1[>][<]}{[>][<]FC(F)(F)CC(F)(F)F[>][<]}{[>][<]c1ccccc1[>][<]}{[>][<]c1ccc2ocnc2c1[>][<]}{[>][<]*c1nc2ccccc2o1[>][]},FC(F)(F)C(c1ccc([*])cc1)(c6ccc(c5nc4ccc(c3ccc2nc([*])oc2c3)cc4o5)cc6)C(F)(F)F.CCCCO,[F][C][Branch1_1][C][F][Branch1_1][C][F][C][Branch1_1][N][C][=C][C][=C][Branch1_1][C][C][C][=C][Ring1][Branch1_3][Branch2_1][Ring2][=N][C][=C][C][=C][Branch2_1][Ring1][P][C][=N][C][=C][C][=C][Branch1_1][P][C][=C][C][=C][N][=C][Branch1_1][C][C][O][C][Ring1][Branch1_2][=C][Ring1][Branch2_3][C][=C][Ring1][S][O][Ring2][Ring1][Ring1][C][=C][Ring2][Ring1][Branch2_2][C][Branch1_1][C][F][Branch1_1][C][F][F].[C][C][C][C][O],{[][<]*c1ccccc1[>][<]}{[>][<]FC(F)(F)CC(F)(F)F[>][<]}{[>][<]c1ccccc1[>][<]}{[>][<]c1ccc2ocnc2c1[>][<]}{[>][<]*c1nc2ccccc2o1[>][]}.CCCCO
25,pbo,82.0,24.24,n-butanol,23.1,10.0,60,1.0,0.0596,891.0,FC(F)(F)C(c1ccc([*])cc1)(c6ccc(c5nc4ccc(c3ccc2nc([*])oc2c3)cc4o5)cc6)C(F)(F)F,CCCCO,"[1, 3, 0, 0, 1, 3, 0, 0, 2, 4, 0, 0, 0, 0, 2]",[F][C][Branch1_1][C][F][Branch1_1][C][F][C][Branch1_1][N][C][=C][C][=C][Branch1_1][C][C][C][=C][Ring1][Branch1_3][Branch2_1][Ring2][=N][C][=C][C][=C][Branch2_1][Ring1][P][C][=N][C][=C][C][=C][Branch1_1][P][C][=C][C][=C][N][=C][Branch1_1][C][C][O][C][Ring1][Branch1_2][=C][Ring1][Branch2_3][C][=C][Ring1][S][O][Ring2][Ring1][Ring1][C][=C][Ring2][Ring1][Branch2_2][C][Branch1_1][C][F][Branch1_1][C][F][F],[C][C][C][C][O],{[][<]*c1ccccc1[>][<]}{[>][<]FC(F)(F)CC(F)(F)F[>][<]}{[>][<]c1ccccc1[>][<]}{[>][<]c1ccc2ocnc2c1[>][<]}{[>][<]*c1nc2ccccc2o1[>][]},FC(F)(F)C(c1ccc([*])cc1)(c6ccc(c5nc4ccc(c3ccc2nc([*])oc2c3)cc4o5)cc6)C(F)(F)F.CCCCO,[F][C][Branch1_1][C][F][Branch1_1][C][F][C][Branch1_1][N][C][=C][C][=C][Branch1_1][C][C][C][=C][Ring1][Branch1_3][Branch2_1][Ring2][=N][C][=C][C][=C][Branch2_1][Ring1][P][C][=N][C][=C][C][=C][Branch1_1][P][C][=C][C][=C][N][=C][Branch1_1][C][C][O][C][Ring1][Branch1_2][=C][Ring1][Branch2_3][C][=C][Ring1][S][O][Ring2][Ring1][Ring1][C][=C][Ring2][Ring1][Branch2_2][C][Branch1_1][C][F][Branch1_1][C][F][F].[C][C][C][C][O],{[][<]*c1ccccc1[>][<]}{[>][<]FC(F)(F)CC(F)(F)F[>][<]}{[>][<]c1ccccc1[>][<]}{[>][<]c1ccc2ocnc2c1[>][<]}{[>][<]*c1nc2ccccc2o1[>][]}.CCCCO
26,pbo,82.0,24.24,ethanol,26.5,15.0,25,1.0,0.0836,80.59259259,FC(F)(F)C(c1ccc([*])cc1)(c6ccc(c5nc4ccc(c3ccc2nc([*])oc2c3)cc4o5)cc6)C(F)(F)F,CCO,"[1, 1, 0, 0, 1, 3, 0, 0, 2, 4, 0, 0, 0, 0, 2]",[F][C][Branch1_1][C][F][Branch1_1][C][F][C][Branch1_1][N][C][=C][C][=C][Branch1_1][C][C][C][=C][Ring1][Branch1_3][Branch2_1][Ring2][=N][C][=C][C][=C][Branch2_1][Ring1][P][C][=N][C][=C][C][=C][Branch1_1][P][C][=C][C][=C][N][=C][Branch1_1][C][C][O][C][Ring1][Branch1_2][=C][Ring1][Branch2_3][C][=C][Ring1][S][O][Ring2][Ring1][Ring1][C][=C][Ring2][Ring1][Branch2_2][C][Branch1_1][C][F][Branch1_1][C][F][F],[C][C][O],{[][<]*c1ccccc1[>][<]}{[>][<]FC(F)(F)CC(F)(F)F[>][<]}{[>][<]c1ccccc1[>][<]}{[>][<]c1ccc2ocnc2c1[>][<]}{[>][<]*c1nc2ccccc2o1[>][]},FC(F)(F)C(c1ccc([*])cc1)(c6ccc(c5nc4ccc(c3ccc2nc([*])oc2c3)cc4o5)cc6)C(F)(F)F.CCO,[F][C][Branch1_1][C][F][Branch1_1][C][F][C][Branch1_1][N][C][=C][C][=C][Branch1_1][C][C][C][=C][Ring1][Branch1_3][Branch2_1][Ring2][=N][C][=C][C][=C][Branch2_1][Ring1][P][C][=N][C][=C][C][=C][Branch1_1][P][C][=C][C][=C][N][=C][Branch1_1][C][C][O][C][Ring1][Branch1_2][=C][Ring1][Branch2_3][C][=C][Ring1][S][O][Ring2][Ring1][Ring1][C][=C][Ring2][Ring1][Branch2_2][C][Branch1_1][C][F][Branch1_1][C][F][F].[C][C][O],{[][<]*c1ccccc1[>][<]}{[>][<]FC(F)(F)CC(F)(F)F[>][<]}{[>][<]c1ccccc1[>][<]}{[>][<]c1ccc2ocnc2c1[>][<]}{[>][<]*c1nc2ccccc2o1[>][]}.CCO
27,pbo,82.0,24.24,ipa,23.5,10.0,60,1.0,0.0846,927.0,FC(F)(F)C(c1ccc([*])cc1)(c6ccc(c5nc4ccc(c3ccc2nc([*])oc2c3)cc4o5)cc6)C(F)(F)F,CC(C)O,"[2, 0, 1, 0, 1, 3, 0, 0, 2, 4, 0, 0, 0, 0, 2]",[F][C][Branch1_1][C][F][Branch1_1][C][F][C][Branch1_1][N][C][=C][C][=C][Branch1_1][C][C][C][=C][Ring1][Branch1_3][Branch2_1][Ring2][=N][C][=C][C][=C][Branch2_1][Ring1][P][C][=N][C][=C][C][=C][Branch1_1][P][C][=C][C][=C][N][=C][Branch1_1][C][C][O][C][Ring1][Branch1_2][=C][Ring1][Branch2_3][C][=C][Ring1][S][O][Ring2][Ring1][Ring1][C][=C][Ring2][Ring1][Branch2_2][C][Branch1_1][C][F][Branch1_1][C][F][F],[C][C][Branch1_1][C][C][O],{[][<]*c1ccccc1[>][<]}{[>][<]FC(F)(F)CC(F)(F)F[>][<]}{[>][<]c1ccccc1[>][<]}{[>][<]c1ccc2ocnc2c1[>][<]}{[>][<]*c1nc2ccccc2o1[>][]},FC(F)(F)C(c1ccc([*])cc1)(c6ccc(c5nc4ccc(c3ccc2nc([*])oc2c3)cc4o5)cc6)C(F)(F)F.CC(C)O,[F][C][Branch1_1][C][F][Branch1_1][C][F][C][Branch1_1][N][C][=C][C][=C][Branch1_1][C][C][C][=C][Ring1][Branch1_3][Branch2_1][Ring2][=N][C][=C][C][=C][Branch2_1][Ring1][P][C][=N][C][=C][C][=C][Branch1_1][P][C][=C][C][=C][N][=C][Branch1_1][C][C][O][C][Ring1][Branch1_2][=C][Ring1][Branch2_3][C][=C][Ring1][S][O][Ring2][Ring1][Ring1][C][=C][Ring2][Ring1][Branch2_2][C][Branch1_1][C][F][Branch1_1][C][F][F].[C][C][Branch1_1][C][C][O],{[][<]*c1ccccc1[>][<]}{[>][<]FC(F)(F)CC(F)(F)F[>][<]}{[>][<]c1ccccc1[>][<]}{[>][<]c1ccc2ocnc2c1[>][<]}{[>][<]*c1nc2ccccc2o1[>][]}.CC(C)O
29,pbo,84.0,24.11,ethanol,26.5,15.0,25,1.0,0.0801,68.26984127,FC(F)(F)C(c1ccc([*])cc1)(c6ccc(c5nc4ccc(c3ccc2nc([*])oc2c3)cc4o5)cc6)C(F)(F)F,CCO,"[1, 1, 0, 0, 1, 3, 0, 0, 2, 4, 0, 0, 0, 0, 2]",[F][C][Branch1_1][C][F][Branch1_1][C][F][C][Branch1_1][N][C][=C][C][=C][Branch1_1][C][C][C][=C][Ring1][Branch1_3][Branch2_1][Ring2][=N][C][=C][C][=C][Branch2_1][Ring1][P][C][=N][C][=C][C][=C][Branch1_1][P][C][=C][C][=C][N][=C][Branch1_1][C][C][O][C][Ring1][Branch1_2][=C][Ring1][Branch2_3][C][=C][Ring1][S][O][Ring2][Ring1][Ring1][C][=C][Ring2][Ring1][Branch2_2][C][Branch1_1][C][F][Branch1_1][C][F][F],[C][C][O],{[][<]*c1ccccc1[>][<]}{[>][<]FC(F)(F)CC(F)(F)F[>][<]}{[>][<]c1ccccc1[>][<]}{[>][<]c1ccc2ocnc2c1[>][<]}{[>][<]*c1nc2ccccc2o1[>][]},FC(F)(F)C(c1ccc([*])cc1)(c6ccc(c5nc4ccc(c3ccc2nc([*])oc2c3)cc4o5)cc6)C(F)(F)F.CCO,[F][C][Branch1_1][C][F][Branch1_1][C][F][C][Branch1_1][N][C][=C][C][=C][Branch1_1][C][C][C][=C][Ring1][Branch1_3][Branch2_1][Ring2][=N][C][=C][C][=C][Branch2_1][Ring1][P][C][=N][C][=C][C][=C][Branch1_1][P][C][=C][C][=C][N][=C][Branch1_1][C][C][O][C][Ring1][Branch1_2][=C][Ring1][Branch2_3][C][=C][Ring1][S][O][Ring2][Ring1][Ring1][C][=C][Ring2][Ring1][Branch2_2][C][Branch1_1][C][F][Branch1_1][C][F][F].[C][C][O],{[][<]*c1ccccc1[>][<]}{[>][<]FC(F)(F)CC(F)(F)F[>][<]}{[>][<]c1ccccc1[>][<]}{[>][<]c1ccc2ocnc2c1[>][<]}{[>][<]*c1nc2ccccc2o1[>][]}.CCO
30,pbo,90.0,23.35,ethanol,26.5,15.0,25,1.0,0.0622,80.59259259,FC(F)(F)C(c1ccc([*])cc1)(c6ccc(c5nc4ccc(c3ccc2nc([*])oc2c3)cc4o5)cc6)C(F)(F)F,CCO,"[1, 1, 0, 0, 1, 3, 0, 0, 2, 4, 0, 0, 0, 0, 2]",[F][C][Branch1_1][C][F][Branch1_1][C][F][C][Branch1_1][N][C][=C][C][=C][Branch1_1][C][C][C][=C][Ring1][Branch1_3][Branch2_1][Ring2][=N][C][=C][C][=C][Branch2_1][Ring1][P][C][=N][C][=C][C][=C][Branch1_1][P][C][=C][C][=C][N][=C][Branch1_1][C][C][O][C][Ring1][Branch1_2][=C][Ring1][Branch2_3][C][=C][Ring1][S][O][Ring2][Ring1][Ring1][C][=C][Ring2][Ring1][Branch2_2][C][Branch1_1][C][F][Branch1_1][C][F][F],[C][C][O],{[][<]*c1ccccc1[>][<]}{[>][<]FC(F)(F)CC(F)(F)F[>][<]}{[>][<]c1ccccc1[>][<]}{[>][<]c1ccc2ocnc2c1[>][<]}{[>][<]*c1nc2ccccc2o1[>][]},FC(F)(F)C(c1ccc([*])cc1)(c6ccc(c5nc4ccc(c3ccc2nc([*])oc2c3)cc4o5)cc6)C(F)(F)F.CCO,[F][C][Branch1_1][C][F][Branch1_1][C][F][C][Branch1_1][N][C][=C][C][=C][Branch1_1][C][C][C][=C][Ring1][Branch1_3][Branch2_1][Ring2][=N][C][=C][C][=C][Branch2_1][Ring1][P][C][=N][C][=C][C][=C][Branch1_1][P][C][=C][C][=C][N][=C][Branch1_1][C][C][O][C][Ring1][Branch1_2][=C][Ring1][Branch2_3][C][=C][Ring1][S][O][Ring2][Ring1][Ring1][C][=C][Ring2][Ring1][Branch2_2][C][Branch1_1][C][F][Branch1_1][C][F][F].[C][C][O],{[][<]*c1ccccc1[>][<]}{[>][<]FC(F)(F)CC(F)(F)F[>][<]}{[>][<]c1ccccc1[>][<]}{[>][<]c1ccc2ocnc2c1[>][<]}{[>][<]*c1nc2ccccc2o1[>][]}.CCO
31,pbo,91.0,18.23,ethanol,26.5,15.0,25,1.0,0.0486,216.1428571,FC(F)(F)C(c1ccc([*])cc1)(c6ccc(c5nc4ccc(c3ccc2nc([*])oc2c3)cc4o5)cc6)C(F)(F)F,CCO,"[1, 1, 0, 0, 1, 3, 0, 0, 2, 4, 0, 0, 0, 0, 2]",[F][C][Branch1_1][C][F][Branch1_1][C][F][C][Branch1_1][N][C][=C][C][=C][Branch1_1][C][C][C][=C][Ring1][Branch1_3][Branch2_1][Ring2][=N][C][=C][C][=C][Branch2_1][Ring1][P][C][=N][C][=C][C][=C][Branch1_1][P][C][=C][C][=C][N][=C][Branch1_1][C][C][O][C][Ring1][Branch1_2][=C][Ring1][Branch2_3][C][=C][Ring1][S][O][Ring2][Ring1][Ring1][C][=C][Ring2][Ring1][Branch2_2][C][Branch1_1][C][F][Branch1_1][C][F][F],[C][C][O],{[][<]*c1ccccc1[>][<]}{[>][<]FC(F)(F)CC(F)(F)F[>][<]}{[>][<]c1ccccc1[>][<]}{[>][<]c1ccc2ocnc2c1[>][<]}{[>][<]*c1nc2ccccc2o1[>][]},FC(F)(F)C(c1ccc([*])cc1)(c6ccc(c5nc4ccc(c3ccc2nc([*])oc2c3)cc4o5)cc6)C(F)(F)F.CCO,[F][C][Branch1_1][C][F][Branch1_1][C][F][C][Branch1_1][N][C][=C][C][=C][Branch1_1][C][C][C][=C][Ring1][Branch1_3][Branch2_1][Ring2][=N][C][=C][C][=C][Branch2_1][Ring1][P][C][=N][C][=C][C][=C][Branch1_1][P][C][=C][C][=C][N][=C][Branch1_1][C][C][O][C][Ring1][Branch1_2][=C][Ring1][Branch2_3][C][=C][Ring1][S][O][Ring2][Ring1][Ring1][C][=C][Ring2][Ring1][Branch2_2][C][Branch1_1][C][F][Branch1_1][C][F][F].[C][C][O],{[][<]*c1ccccc1[>][<]}{[>][<]FC(F)(F)CC(F)(F)F[>][<]}{[>][<]c1ccccc1[>][<]}{[>][<]c1ccc2ocnc2c1[>][<]}{[>][<]*c1nc2ccccc2o1[>][]}.CCO
32,p84,82.3,39.0,ipa,23.5,15.0,60,5.0,0.0136,1347.701149,Cc1cc(c7ccc(Cc6ccc([*])cc6)cc7)ccc1n5c(=O)c4ccc(C(=O)c3ccc2c(=O)n([*])c(=O)c2c3)cc4c5=O,CC(C)O,"[3, 1, 1, 5, 1, 0, 0, 0, 2, 5, 0, 0, 0, 0, 0]",[C][C][=C][C][=C][Branch1_1][=N][C][C][=C][C][=C][Branch1_1][C][C][C][=C][Ring1][Branch1_3][C][=C][Ring1][=C].[C][C][=C][C][Branch1_1][C][C][=C][C][=C][Ring1][Branch1_3][N][C][Branch1_2][C][=O][C][=C][C][=C][Branch2_1][Ring1][O][C][Branch1_2][C][=O][C][=C][C][=C][C][Branch1_2][C][=O][N][Branch1_1][C][C][C][Branch1_2][C][=O][C][Ring1][Branch2_1][=C][Ring1][N][C][=C][Ring2][Ring1][Ring2][C][Ring2][Ring1][Branch2_1][=O],[C][C][Branch1_1][C][C][O],{[][<]*c1ccccc1[>][<]}{[>][<]C[>][<]}{[>][<]c1ccccc1[>][<]}{[>][<]Cc1ccccc1[>][<]}{[>][<]O=C1NC(=O)c2ccccc21[>][<]}{[>][<]C=O[>][<]}{[>][<]*N1C(=O)c2ccccc2C1=O[>][]},Cc1cc(c7ccc(Cc6ccc([*])cc6)cc7)ccc1n5c(=O)c4ccc(C(=O)c3ccc2c(=O)n([*])c(=O)c2c3)cc4c5=O.CC(C)O,[C][C][=C][C][=C][Branch1_1][=N][C][C][=C][C][=C][Branch1_1][C][C][C][=C][Ring1][Branch1_3][C][=C][Ring1][=C].[C][C][=C][C][Branch1_1][C][C][=C][C][=C][Ring1][Branch1_3][N][C][Branch1_2][C][=O][C][=C][C][=C][Branch2_1][Ring1][O][C][Branch1_2][C][=O][C][=C][C][=C][C][Branch1_2][C][=O][N][Branch1_1][C][C][C][Branch1_2][C][=O][C][Ring1][Branch2_1][=C][Ring1][N][C][=C][Ring2][Ring1][Ring2][C][Ring2][Ring1][Branch2_1][=O].[C][C][Branch1_1][C][C][O],{[][<]*c1ccccc1[>][<]}{[>][<]C[>][<]}{[>][<]c1ccccc1[>][<]}{[>][<]Cc1ccccc1[>][<]}{[>][<]O=C1NC(=O)c2ccccc21[>][<]}{[>][<]C=O[>][<]}{[>][<]*N1C(=O)c2ccccc2C1=O[>][]}.CC(C)O
33,p84,82.3,39.0,ipa,23.5,15.0,80,5.0,0.0256,945.402299,Cc1cc(c7ccc(Cc6ccc([*])cc6)cc7)ccc1n5c(=O)c4ccc(C(=O)c3ccc2c(=O)n([*])c(=O)c2c3)cc4c5=O,CC(C)O,"[3, 1, 1, 5, 1, 0, 0, 0, 2, 5, 0, 0, 0, 0, 0]",[C][C][=C][C][=C][Branch1_1][=N][C][C][=C][C][=C][Branch1_1][C][C][C][=C][Ring1][Branch1_3][C][=C][Ring1][=C].[C][C][=C][C][Branch1_1][C][C][=C][C][=C][Ring1][Branch1_3][N][C][Branch1_2][C][=O][C][=C][C][=C][Branch2_1][Ring1][O][C][Branch1_2][C][=O][C][=C][C][=C][C][Branch1_2][C][=O][N][Branch1_1][C][C][C][Branch1_2][C][=O][C][Ring1][Branch2_1][=C][Ring1][N][C][=C][Ring2][Ring1][Ring2][C][Ring2][Ring1][Branch2_1][=O],[C][C][Branch1_1][C][C][O],{[][<]*c1ccccc1[>][<]}{[>][<]C[>][<]}{[>][<]c1ccccc1[>][<]}{[>][<]Cc1ccccc1[>][<]}{[>][<]O=C1NC(=O)c2ccccc21[>][<]}{[>][<]C=O[>][<]}{[>][<]*N1C(=O)c2ccccc2C1=O[>][]},Cc1cc(c7ccc(Cc6ccc([*])cc6)cc7)ccc1n5c(=O)c4ccc(C(=O)c3ccc2c(=O)n([*])c(=O)c2c3)cc4c5=O.CC(C)O,[C][C][=C][C][=C][Branch1_1][=N][C][C][=C][C][=C][Branch1_1][C][C][C][=C][Ring1][Branch1_3][C][=C][Ring1][=C].[C][C][=C][C][Branch1_1][C][C][=C][C][=C][Ring1][Branch1_3][N][C][Branch1_2][C][=O][C][=C][C][=C][Branch2_1][Ring1][O][C][Branch1_2][C][=O][C][=C][C][=C][C][Branch1_2][C][=O][N][Branch1_1][C][C][C][Branch1_2][C][=O][C][Ring1][Branch2_1][=C][Ring1][N][C][=C][Ring2][Ring1][Ring2][C][Ring2][Ring1][Branch2_1][=O].[C][C][Branch1_1][C][C][O],{[][<]*c1ccccc1[>][<]}{[>][<]C[>][<]}{[>][<]c1ccccc1[>][<]}{[>][<]Cc1ccccc1[>][<]}{[>][<]O=C1NC(=O)c2ccccc21[>][<]}{[>][<]C=O[>][<]}{[>][<]*N1C(=O)c2ccccc2C1=O[>][]}.CC(C)O
34,p84,82.3,39.0,ipa,23.5,15.0,100,5.0,0.0545,1025.862069,Cc1cc(c7ccc(Cc6ccc([*])cc6)cc7)ccc1n5c(=O)c4ccc(C(=O)c3ccc2c(=O)n([*])c(=O)c2c3)cc4c5=O,CC(C)O,"[3, 1, 1, 5, 1, 0, 0, 0, 2, 5, 0, 0, 0, 0, 0]",[C][C][=C][C][=C][Branch1_1][=N][C][C][=C][C][=C][Branch1_1][C][C][C][=C][Ring1][Branch1_3][C][=C][Ring1][=C].[C][C][=C][C][Branch1_1][C][C][=C][C][=C][Ring1][Branch1_3][N][C][Branch1_2][C][=O][C][=C][C][=C][Branch2_1][Ring1][O][C][Branch1_2][C][=O][C][=C][C][=C][C][Branch1_2][C][=O][N][Branch1_1][C][C][C][Branch1_2][C][=O][C][Ring1][Branch2_1][=C][Ring1][N][C][=C][Ring2][Ring1][Ring2][C][Ring2][Ring1][Branch2_1][=O],[C][C][Branch1_1][C][C][O],{[][<]*c1ccccc1[>][<]}{[>][<]C[>][<]}{[>][<]c1ccccc1[>][<]}{[>][<]Cc1ccccc1[>][<]}{[>][<]O=C1NC(=O)c2ccccc21[>][<]}{[>][<]C=O[>][<]}{[>][<]*N1C(=O)c2ccccc2C1=O[>][]},Cc1cc(c7ccc(Cc6ccc([*])cc6)cc7)ccc1n5c(=O)c4ccc(C(=O)c3ccc2c(=O)n([*])c(=O)c2c3)cc4c5=O.CC(C)O,[C][C][=C][C][=C][Branch1_1][=N][C][C][=C][C][=C][Branch1_1][C][C][C][=C][Ring1][Branch1_3][C][=C][Ring1][=C].[C][C][=C][C][Branch1_1][C][C][=C][C][=C][Ring1][Branch1_3][N][C][Branch1_2][C][=O][C][=C][C][=C][Branch2_1][Ring1][O][C][Branch1_2][C][=O][C][=C][C][=C][C][Branch1_2][C][=O][N][Branch1_1][C][C][C][Branch1_2][C][=O][C][Ring1][Branch2_1][=C][Ring1][N][C][=C][Ring2][Ring1][Ring2][C][Ring2][Ring1][Branch2_1][=O].[C][C][Branch1_1][C][C][O],{[][<]*c1ccccc1[>][<]}{[>][<]C[>][<]}{[>][<]c1ccccc1[>][<]}{[>][<]Cc1ccccc1[>][<]}{[>][<]O=C1NC(=O)c2ccccc21[>][<]}{[>][<]C=O[>][<]}{[>][<]*N1C(=O)c2ccccc2C1=O[>][]}.CC(C)O