Index,Polymer,Contact_angle,Thickness_um,Solvent,Solvent_solubility_parameter_Mpa_sqrt,xw_wt_percent,Temp_C,Permeate_pressure_mbar,J_Total_flux_kg_m_2h_1,a_Separation_factor_wo,Polymer_SMILES,Solvent_SMILES,Sum_of_frags,Polymer_SELFIES,Solvent_SELFIES,Polymer_BigSMILES,PS_SMILES,PS_SELFIES,PS_BigSMILES
184,alginate,37.37,50.0,ipa,23.5,10.0,60,0.06,0.145,148.0,O=C(O)C1OC(C[*])C(O)C(O)C1O(C[*]),CC(C)O,"[2, 0, 11, 2, 7, 0, 0, 0, 0, 0, 4, 0, 0, 0, 0]",[O][=C][Branch1_1][C][O][C][O][C][Branch1_1][C][C][C][Branch1_1][C][O][C][Branch1_1][C][O][C][Ring1][Branch2_2][O][Branch1_1][C][C].[O][=C][Branch1_1][C][O][C][O][C][Branch1_1][C][C][C][Branch1_1][C][O][C][Branch1_1][C][O][C][Ring1][Branch2_2][O][Branch1_1][C][C],[C][C][Branch1_1][C][C][O],{[][<]*C[>][<]}{[>][<]O=C(O)C1CC(O)C(O)CO1[>][<]}{[>][<]O[>][<]}{[>][<]*C[>][]},O=C(O)C1OC(C[*])C(O)C(O)C1O(C[*]).CC(C)O,[O][=C][Branch1_1][C][O][C][O][C][Branch1_1][C][C][C][Branch1_1][C][O][C][Branch1_1][C][O][C][Ring1][Branch2_2][O][Branch1_1][C][C].[O][=C][Branch1_1][C][O][C][O][C][Branch1_1][C][C][C][Branch1_1][C][O][C][Branch1_1][C][O][C][Ring1][Branch2_2][O][Branch1_1][C][C].[C][C][Branch1_1][C][C][O],{[][<]*C[>][<]}{[>][<]O=C(O)C1CC(O)C(O)CO1[>][<]}{[>][<]O[>][<]}{[>][<]*C[>][]}.CC(C)O
192,chitosan,55.1,40.0,ipa,23.5,10.0,50,13.3,0.141,72.9,NC2C(O)C(OC1OC(CO)C(O(C[*]))C(O)C1N)C(CO)OC2(C[*]),CC(C)O,"[2, 2, 11, 0, 5, 0, 2, 0, 0, 0, 4, 0, 0, 0, 0]",[N][C][C][Branch1_1][C][O][C][Branch2_1][Ring1][Branch2_1][O][C][O][C][Branch1_1][Ring1][C][O][C][Branch1_1][Branch1_1][O][Branch1_1][C][C][C][Branch1_1][C][O][C][Ring1][O][N][C][Branch1_1][Ring1][C][O][O][C][Ring2][Ring1][Branch1_2][Branch1_1][C][C],[C][C][Branch1_1][C][C][O],{[][<]*C[>][<]}{[>][<]O[>][<]}{[>][<]NC1COC(CO)CC1O[>][<]}{[>][<]O[>][<]}{[>][<]NC1COC(CO)CC1O[>][<]}{[>][<]*C[>][]},NC2C(O)C(OC1OC(CO)C(O(C[*]))C(O)C1N)C(CO)OC2(C[*]).CC(C)O,[N][C][C][Branch1_1][C][O][C][Branch2_1][Ring1][Branch2_1][O][C][O][C][Branch1_1][Ring1][C][O][C][Branch1_1][Branch1_1][O][Branch1_1][C][C][C][Branch1_1][C][O][C][Ring1][O][N][C][Branch1_1][Ring1][C][O][O][C][Ring2][Ring1][Branch1_2][Branch1_1][C][C].[C][C][Branch1_1][C][C][O],{[][<]*C[>][<]}{[>][<]O[>][<]}{[>][<]NC1COC(CO)CC1O[>][<]}{[>][<]O[>][<]}{[>][<]NC1COC(CO)CC1O[>][<]}{[>][<]*C[>][]}.CC(C)O
193,chitosan,55.1,40.0,ipa,23.5,5.0,30,13.3,0.0285,1469.849246,NC2C(O)C(OC1OC(CO)C(O(C[*]))C(O)C1N)C(CO)OC2(C[*]),CC(C)O,"[2, 2, 11, 0, 5, 0, 2, 0, 0, 0, 4, 0, 0, 0, 0]",[N][C][C][Branch1_1][C][O][C][Branch2_1][Ring1][Branch2_1][O][C][O][C][Branch1_1][Ring1][C][O][C][Branch1_1][Branch1_1][O][Branch1_1][C][C][C][Branch1_1][C][O][C][Ring1][O][N][C][Branch1_1][Ring1][C][O][O][C][Ring2][Ring1][Branch1_2][Branch1_1][C][C],[C][C][Branch1_1][C][C][O],{[][<]*C[>][<]}{[>][<]O[>][<]}{[>][<]NC1COC(CO)CC1O[>][<]}{[>][<]O[>][<]}{[>][<]NC1COC(CO)CC1O[>][<]}{[>][<]*C[>][]},NC2C(O)C(OC1OC(CO)C(O(C[*]))C(O)C1N)C(CO)OC2(C[*]).CC(C)O,[N][C][C][Branch1_1][C][O][C][Branch2_1][Ring1][Branch2_1][O][C][O][C][Branch1_1][Ring1][C][O][C][Branch1_1][Branch1_1][O][Branch1_1][C][C][C][Branch1_1][C][O][C][Ring1][O][N][C][Branch1_1][Ring1][C][O][O][C][Ring2][Ring1][Branch1_2][Branch1_1][C][C].[C][C][Branch1_1][C][C][O],{[][<]*C[>][<]}{[>][<]O[>][<]}{[>][<]NC1COC(CO)CC1O[>][<]}{[>][<]O[>][<]}{[>][<]NC1COC(CO)CC1O[>][<]}{[>][<]*C[>][]}.CC(C)O
196,chitosan,55.1,40.0,ipa,23.5,20.0,30,13.3,0.0732,50.251256,NC2C(O)C(OC1OC(CO)C(O(C[*]))C(O)C1N)C(CO)OC2(C[*]),CC(C)O,"[2, 2, 11, 0, 5, 0, 2, 0, 0, 0, 4, 0, 0, 0, 0]",[N][C][C][Branch1_1][C][O][C][Branch2_1][Ring1][Branch2_1][O][C][O][C][Branch1_1][Ring1][C][O][C][Branch1_1][Branch1_1][O][Branch1_1][C][C][C][Branch1_1][C][O][C][Ring1][O][N][C][Branch1_1][Ring1][C][O][O][C][Ring2][Ring1][Branch1_2][Branch1_1][C][C],[C][C][Branch1_1][C][C][O],{[][<]*C[>][<]}{[>][<]O[>][<]}{[>][<]NC1COC(CO)CC1O[>][<]}{[>][<]O[>][<]}{[>][<]NC1COC(CO)CC1O[>][<]}{[>][<]*C[>][]},NC2C(O)C(OC1OC(CO)C(O(C[*]))C(O)C1N)C(CO)OC2(C[*]).CC(C)O,[N][C][C][Branch1_1][C][O][C][Branch2_1][Ring1][Branch2_1][O][C][O][C][Branch1_1][Ring1][C][O][C][Branch1_1][Branch1_1][O][Branch1_1][C][C][C][Branch1_1][C][O][C][Ring1][O][N][C][Branch1_1][Ring1][C][O][O][C][Ring2][Ring1][Branch1_2][Branch1_1][C][C].[C][C][Branch1_1][C][C][O],{[][<]*C[>][<]}{[>][<]O[>][<]}{[>][<]NC1COC(CO)CC1O[>][<]}{[>][<]O[>][<]}{[>][<]NC1COC(CO)CC1O[>][<]}{[>][<]*C[>][]}.CC(C)O
204,chitosan,55.1,40.0,ipa,23.5,30.0,30,13.3,0.1669,32.482599,NC2C(O)C(OC1OC(CO)C(O(C[*]))C(O)C1N)C(CO)OC2(C[*]),CC(C)O,"[2, 2, 11, 0, 5, 0, 2, 0, 0, 0, 4, 0, 0, 0, 0]",[N][C][C][Branch1_1][C][O][C][Branch2_1][Ring1][Branch2_1][O][C][O][C][Branch1_1][Ring1][C][O][C][Branch1_1][Branch1_1][O][Branch1_1][C][C][C][Branch1_1][C][O][C][Ring1][O][N][C][Branch1_1][Ring1][C][O][O][C][Ring2][Ring1][Branch1_2][Branch1_1][C][C],[C][C][Branch1_1][C][C][O],{[][<]*C[>][<]}{[>][<]O[>][<]}{[>][<]NC1COC(CO)CC1O[>][<]}{[>][<]O[>][<]}{[>][<]NC1COC(CO)CC1O[>][<]}{[>][<]*C[>][]},NC2C(O)C(OC1OC(CO)C(O(C[*]))C(O)C1N)C(CO)OC2(C[*]).CC(C)O,[N][C][C][Branch1_1][C][O][C][Branch2_1][Ring1][Branch2_1][O][C][O][C][Branch1_1][Ring1][C][O][C][Branch1_1][Branch1_1][O][Branch1_1][C][C][C][Branch1_1][C][O][C][Ring1][O][N][C][Branch1_1][Ring1][C][O][O][C][Ring2][Ring1][Branch1_2][Branch1_1][C][C].[C][C][Branch1_1][C][C][O],{[][<]*C[>][<]}{[>][<]O[>][<]}{[>][<]NC1COC(CO)CC1O[>][<]}{[>][<]O[>][<]}{[>][<]NC1COC(CO)CC1O[>][<]}{[>][<]*C[>][]}.CC(C)O
209,alginate,37.37,1.8,n-butanol,23.1,10.0,45,1.0,0.4765,859.534884,O=C(O)C1OC(C[*])C(O)C(O)C1O(C[*]),CCCCO,"[1, 3, 10, 2, 7, 0, 0, 0, 0, 0, 4, 0, 0, 0, 0]",[O][=C][Branch1_1][C][O][C][O][C][Branch1_1][C][C][C][Branch1_1][C][O][C][Branch1_1][C][O][C][Ring1][Branch2_2][O][Branch1_1][C][C].[O][=C][Branch1_1][C][O][C][O][C][Branch1_1][C][C][C][Branch1_1][C][O][C][Branch1_1][C][O][C][Ring1][Branch2_2][O][Branch1_1][C][C],[C][C][C][C][O],{[][<]*C[>][<]}{[>][<]O=C(O)C1CC(O)C(O)CO1[>][<]}{[>][<]O[>][<]}{[>][<]*C[>][]},O=C(O)C1OC(C[*])C(O)C(O)C1O(C[*]).CCCCO,[O][=C][Branch1_1][C][O][C][O][C][Branch1_1][C][C][C][Branch1_1][C][O][C][Branch1_1][C][O][C][Ring1][Branch2_2][O][Branch1_1][C][C].[O][=C][Branch1_1][C][O][C][O][C][Branch1_1][C][C][C][Branch1_1][C][O][C][Branch1_1][C][O][C][Ring1][Branch2_2][O][Branch1_1][C][C].[C][C][C][C][O],{[][<]*C[>][<]}{[>][<]O=C(O)C1CC(O)C(O)CO1[>][<]}{[>][<]O[>][<]}{[>][<]*C[>][]}.CCCCO
213,ptmsp,100.0,20.0,n-butanol,23.1,98.5,25,2.7,0.0879,0.013592,C/C(*)=C(*)/[Si](C)(C)C,CCCCO,"[5, 3, 0, 0, 1, 0, 0, 0, 0, 0, 0, 1, 0, 1, 0]",[C][/C][Branch1_1][C][C][=C][Branch1_1][C][C][/Siexpl][Branch1_1][C][C][Branch1_1][C][C][C],[C][C][C][C][O],{[][<]*CC[>][<]}{[>][<]*C[Si](C)(C)C[>][]},C/C(*)=C(*)/[Si](C)(C)C.CCCCO,[C][/C][Branch1_1][C][C][=C][Branch1_1][C][C][/Siexpl][Branch1_1][C][C][Branch1_1][C][C][C].[C][C][C][C][O],{[][<]*CC[>][<]}{[>][<]*C[Si](C)(C)C[>][]}.CCCCO
214,ptmsp,100.0,20.0,n-butanol,23.1,98.0,25,2.7,0.102,0.012613,C/C(*)=C(*)/[Si](C)(C)C,CCCCO,"[5, 3, 0, 0, 1, 0, 0, 0, 0, 0, 0, 1, 0, 1, 0]",[C][/C][Branch1_1][C][C][=C][Branch1_1][C][C][/Siexpl][Branch1_1][C][C][Branch1_1][C][C][C],[C][C][C][C][O],{[][<]*CC[>][<]}{[>][<]*C[Si](C)(C)C[>][]},C/C(*)=C(*)/[Si](C)(C)C.CCCCO,[C][/C][Branch1_1][C][C][=C][Branch1_1][C][C][/Siexpl][Branch1_1][C][C][Branch1_1][C][C][C].[C][C][C][C][O],{[][<]*CC[>][<]}{[>][<]*C[Si](C)(C)C[>][]}.CCCCO
218,ptmsp,100.0,20.0,n-butanol,23.1,96.0,25,2.7,0.2466,0.012227,C/C(*)=C(*)/[Si](C)(C)C,CCCCO,"[5, 3, 0, 0, 1, 0, 0, 0, 0, 0, 0, 1, 0, 1, 0]",[C][/C][Branch1_1][C][C][=C][Branch1_1][C][C][/Siexpl][Branch1_1][C][C][Branch1_1][C][C][C],[C][C][C][C][O],{[][<]*CC[>][<]}{[>][<]*C[Si](C)(C)C[>][]},C/C(*)=C(*)/[Si](C)(C)C.CCCCO,[C][/C][Branch1_1][C][C][=C][Branch1_1][C][C][/Siexpl][Branch1_1][C][C][Branch1_1][C][C][C].[C][C][C][C][O],{[][<]*CC[>][<]}{[>][<]*C[Si](C)(C)C[>][]}.CCCCO
222,ptmsp,100.0,20.0,n-butanol,23.1,94.0,25,2.7,0.5191,0.011155,C/C(*)=C(*)/[Si](C)(C)C,CCCCO,"[5, 3, 0, 0, 1, 0, 0, 0, 0, 0, 0, 1, 0, 1, 0]",[C][/C][Branch1_1][C][C][=C][Branch1_1][C][C][/Siexpl][Branch1_1][C][C][Branch1_1][C][C][C],[C][C][C][C][O],{[][<]*CC[>][<]}{[>][<]*C[Si](C)(C)C[>][]},C/C(*)=C(*)/[Si](C)(C)C.CCCCO,[C][/C][Branch1_1][C][C][=C][Branch1_1][C][C][/Siexpl][Branch1_1][C][C][Branch1_1][C][C][C].[C][C][C][C][O],{[][<]*CC[>][<]}{[>][<]*C[Si](C)(C)C[>][]}.CCCCO
228,ptmsp,100.0,22.0,n-butanol,23.1,99.7,70,2.7,0.762,0.021277,C/C(*)=C(*)/[Si](C)(C)C,CCCCO,"[5, 3, 0, 0, 1, 0, 0, 0, 0, 0, 0, 1, 0, 1, 0]",[C][/C][Branch1_1][C][C][=C][Branch1_1][C][C][/Siexpl][Branch1_1][C][C][Branch1_1][C][C][C],[C][C][C][C][O],{[][<]*CC[>][<]}{[>][<]*C[Si](C)(C)C[>][]},C/C(*)=C(*)/[Si](C)(C)C.CCCCO,[C][/C][Branch1_1][C][C][=C][Branch1_1][C][C][/Siexpl][Branch1_1][C][C][Branch1_1][C][C][C].[C][C][C][C][O],{[][<]*CC[>][<]}{[>][<]*C[Si](C)(C)C[>][]}.CCCCO
230,ptmsp,100.0,22.0,n-butanol,23.1,99.0,70,2.7,0.999,0.014286,C/C(*)=C(*)/[Si](C)(C)C,CCCCO,"[5, 3, 0, 0, 1, 0, 0, 0, 0, 0, 0, 1, 0, 1, 0]",[C][/C][Branch1_1][C][C][=C][Branch1_1][C][C][/Siexpl][Branch1_1][C][C][Branch1_1][C][C][C],[C][C][C][C][O],{[][<]*CC[>][<]}{[>][<]*C[Si](C)(C)C[>][]},C/C(*)=C(*)/[Si](C)(C)C.CCCCO,[C][/C][Branch1_1][C][C][=C][Branch1_1][C][C][/Siexpl][Branch1_1][C][C][Branch1_1][C][C][C].[C][C][C][C][O],{[][<]*CC[>][<]}{[>][<]*C[Si](C)(C)C[>][]}.CCCCO
239,matrimid,91.2,50.0,ipa,23.5,15.0,60,1.0,0.0247,1368.0,CC7(C)CC(C)(c5ccc(n4c(=O)c3ccc(C(=O)c2ccc1c(=O)n([*])c(=O)c1c2)cc3c4=O)cc5)c6cc([*])ccc67,CC(C)O,"[5, 1, 1, 5, 1, 2, 0, 0, 2, 4, 0, 0, 0, 0, 0]",[C][C][Branch1_1][C][C][C][C][Branch1_1][C][C][Branch2_1][Branch1_1][=N][C][=C][C][=C][Branch2_1][Ring2][P][N][C][Branch1_2][C][=O][C][=C][C][=C][Branch2_1][Ring1][O][C][Branch1_2][C][=O][C][=C][C][=C][C][Branch1_2][C][=O][N][Branch1_1][C][C][C][Branch1_2][C][=O][C][Ring1][Branch2_1][=C][Ring1][N][C][=C][Ring2][Ring1][Ring2][C][Ring2][Ring1][Branch2_1][=O][C][=C][Ring2][Ring1][#C][C][=C][C][Branch1_1][C][C][=C][C][=C][Ring1][Branch1_3][Ring2][Ring2][O],[C][C][Branch1_1][C][C][O],{[][<]*N1C(=O)c2ccccc2C1=O[>][<]}{[>][<]C=O[>][<]}{[>][<]O=C1NC(=O)c2ccccc21[>][<]}{[>][<]c1ccccc1[>][<]}{[>][<]*c1ccc2c(c1)C(C)CC2(C)C[>][]},CC7(C)CC(C)(c5ccc(n4c(=O)c3ccc(C(=O)c2ccc1c(=O)n([*])c(=O)c1c2)cc3c4=O)cc5)c6cc([*])ccc67.CC(C)O,[C][C][Branch1_1][C][C][C][C][Branch1_1][C][C][Branch2_1][Branch1_1][=N][C][=C][C][=C][Branch2_1][Ring2][P][N][C][Branch1_2][C][=O][C][=C][C][=C][Branch2_1][Ring1][O][C][Branch1_2][C][=O][C][=C][C][=C][C][Branch1_2][C][=O][N][Branch1_1][C][C][C][Branch1_2][C][=O][C][Ring1][Branch2_1][=C][Ring1][N][C][=C][Ring2][Ring1][Ring2][C][Ring2][Ring1][Branch2_1][=O][C][=C][Ring2][Ring1][#C][C][=C][C][Branch1_1][C][C][=C][C][=C][Ring1][Branch1_3][Ring2][Ring2][O].[C][C][Branch1_1][C][C][O],{[][<]*N1C(=O)c2ccccc2C1=O[>][<]}{[>][<]C=O[>][<]}{[>][<]O=C1NC(=O)c2ccccc21[>][<]}{[>][<]c1ccccc1[>][<]}{[>][<]*c1ccc2c(c1)C(C)CC2(C)C[>][]}.CC(C)O
240,matrimid,91.2,50.0,n-butanol,23.1,15.0,60,1.0,0.0248,5661.0,CC7(C)CC(C)(c5ccc(n4c(=O)c3ccc(C(=O)c2ccc1c(=O)n([*])c(=O)c1c2)cc3c4=O)cc5)c6cc([*])ccc67,CCCCO,"[4, 4, 0, 5, 1, 2, 0, 0, 2, 4, 0, 0, 0, 0, 0]",[C][C][Branch1_1][C][C][C][C][Branch1_1][C][C][Branch2_1][Branch1_1][=N][C][=C][C][=C][Branch2_1][Ring2][P][N][C][Branch1_2][C][=O][C][=C][C][=C][Branch2_1][Ring1][O][C][Branch1_2][C][=O][C][=C][C][=C][C][Branch1_2][C][=O][N][Branch1_1][C][C][C][Branch1_2][C][=O][C][Ring1][Branch2_1][=C][Ring1][N][C][=C][Ring2][Ring1][Ring2][C][Ring2][Ring1][Branch2_1][=O][C][=C][Ring2][Ring1][#C][C][=C][C][Branch1_1][C][C][=C][C][=C][Ring1][Branch1_3][Ring2][Ring2][O],[C][C][C][C][O],{[][<]*N1C(=O)c2ccccc2C1=O[>][<]}{[>][<]C=O[>][<]}{[>][<]O=C1NC(=O)c2ccccc21[>][<]}{[>][<]c1ccccc1[>][<]}{[>][<]*c1ccc2c(c1)C(C)CC2(C)C[>][]},CC7(C)CC(C)(c5ccc(n4c(=O)c3ccc(C(=O)c2ccc1c(=O)n([*])c(=O)c1c2)cc3c4=O)cc5)c6cc([*])ccc67.CCCCO,[C][C][Branch1_1][C][C][C][C][Branch1_1][C][C][Branch2_1][Branch1_1][=N][C][=C][C][=C][Branch2_1][Ring2][P][N][C][Branch1_2][C][=O][C][=C][C][=C][Branch2_1][Ring1][O][C][Branch1_2][C][=O][C][=C][C][=C][C][Branch1_2][C][=O][N][Branch1_1][C][C][C][Branch1_2][C][=O][C][Ring1][Branch2_1][=C][Ring1][N][C][=C][Ring2][Ring1][Ring2][C][Ring2][Ring1][Branch2_1][=O][C][=C][Ring2][Ring1][#C][C][=C][C][Branch1_1][C][C][=C][C][=C][Ring1][Branch1_3][Ring2][Ring2][O].[C][C][C][C][O],{[][<]*N1C(=O)c2ccccc2C1=O[>][<]}{[>][<]C=O[>][<]}{[>][<]O=C1NC(=O)c2ccccc21[>][<]}{[>][<]c1ccccc1[>][<]}{[>][<]*c1ccc2c(c1)C(C)CC2(C)C[>][]}.CCCCO
242,peba,89.0,30.0,n-butanol,23.1,99.99241466,60,1.0,0.2708,0.026227,O=C(C(=O)OOC(=O)CCCCCCCCCCCN(CCCCO[*]))[*],CCCCO,"[2, 17, 0, 3, 1, 0, 0, 1, 0, 0, 3, 0, 0, 0, 0]",[C][Branch1_1][C][C][=O].[C][O][C][Branch1_1][C][C][=O].[C][O][C].[C][N][C][C][C][C][C][C][C][C][C][C][C][C][Branch1_1][C][C][=O].[C][C][C][C][C][O][C],[C][C][C][C][O],{[][<]*O[>][<]}{[>][<]C[>][<]}{[>][<]C[>][<]}{[>][<]C[>][<]}{[>][<]C[>][<]}{[>][<]N[>][<]}{[>][<]C[>][<]}{[>][<]C[>][<]}{[>][<]C[>][<]}{[>][<]C[>][<]}{[>][<]C[>][<]}{[>][<]C[>][<]}{[>][<]C[>][<]}{[>][<]C[>][<]}{[>][<]C[>][<]}{[>][<]C[>][<]}{[>][<]C[>][<]}{[>][<]C=O[>][<]}{[>][<]O[>][<]}{[>][<]O[>][<]}{[>][<]C=O[>][<]}{[>][<]*C=O[>][]},O=C(C(=O)OOC(=O)CCCCCCCCCCCN(CCCCO[*]))[*].CCCCO,[C][Branch1_1][C][C][=O].[C][O][C][Branch1_1][C][C][=O].[C][O][C].[C][N][C][C][C][C][C][C][C][C][C][C][C][C][Branch1_1][C][C][=O].[C][C][C][C][C][O][C].[C][C][C][C][O],{[][<]*O[>][<]}{[>][<]C[>][<]}{[>][<]C[>][<]}{[>][<]C[>][<]}{[>][<]C[>][<]}{[>][<]N[>][<]}{[>][<]C[>][<]}{[>][<]C[>][<]}{[>][<]C[>][<]}{[>][<]C[>][<]}{[>][<]C[>][<]}{[>][<]C[>][<]}{[>][<]C[>][<]}{[>][<]C[>][<]}{[>][<]C[>][<]}{[>][<]C[>][<]}{[>][<]C[>][<]}{[>][<]C=O[>][<]}{[>][<]O[>][<]}{[>][<]O[>][<]}{[>][<]C=O[>][<]}{[>][<]*C=O[>][]}.CCCCO
245,peba,89.0,30.0,n-butanol,23.1,99.9494311,60,1.0,0.3599,0.029539,O=C(C(=O)OOC(=O)CCCCCCCCCCCN(CCCCO[*]))[*],CCCCO,"[2, 17, 0, 3, 1, 0, 0, 1, 0, 0, 3, 0, 0, 0, 0]",[C][Branch1_1][C][C][=O].[C][O][C][Branch1_1][C][C][=O].[C][O][C].[C][N][C][C][C][C][C][C][C][C][C][C][C][C][Branch1_1][C][C][=O].[C][C][C][C][C][O][C],[C][C][C][C][O],{[][<]*O[>][<]}{[>][<]C[>][<]}{[>][<]C[>][<]}{[>][<]C[>][<]}{[>][<]C[>][<]}{[>][<]N[>][<]}{[>][<]C[>][<]}{[>][<]C[>][<]}{[>][<]C[>][<]}{[>][<]C[>][<]}{[>][<]C[>][<]}{[>][<]C[>][<]}{[>][<]C[>][<]}{[>][<]C[>][<]}{[>][<]C[>][<]}{[>][<]C[>][<]}{[>][<]C[>][<]}{[>][<]C=O[>][<]}{[>][<]O[>][<]}{[>][<]O[>][<]}{[>][<]C=O[>][<]}{[>][<]*C=O[>][]},O=C(C(=O)OOC(=O)CCCCCCCCCCCN(CCCCO[*]))[*].CCCCO,[C][Branch1_1][C][C][=O].[C][O][C][Branch1_1][C][C][=O].[C][O][C].[C][N][C][C][C][C][C][C][C][C][C][C][C][C][Branch1_1][C][C][=O].[C][C][C][C][C][O][C].[C][C][C][C][O],{[][<]*O[>][<]}{[>][<]C[>][<]}{[>][<]C[>][<]}{[>][<]C[>][<]}{[>][<]C[>][<]}{[>][<]N[>][<]}{[>][<]C[>][<]}{[>][<]C[>][<]}{[>][<]C[>][<]}{[>][<]C[>][<]}{[>][<]C[>][<]}{[>][<]C[>][<]}{[>][<]C[>][<]}{[>][<]C[>][<]}{[>][<]C[>][<]}{[>][<]C[>][<]}{[>][<]C[>][<]}{[>][<]C=O[>][<]}{[>][<]O[>][<]}{[>][<]O[>][<]}{[>][<]C=O[>][<]}{[>][<]*C=O[>][]}.CCCCO
248,peba,89.0,30.0,n-butanol,23.1,99.89759798,60,1.0,0.4155,0.030669,O=C(C(=O)OOC(=O)CCCCCCCCCCCN(CCCCO[*]))[*],CCCCO,"[2, 17, 0, 3, 1, 0, 0, 1, 0, 0, 3, 0, 0, 0, 0]",[C][Branch1_1][C][C][=O].[C][O][C][Branch1_1][C][C][=O].[C][O][C].[C][N][C][C][C][C][C][C][C][C][C][C][C][C][Branch1_1][C][C][=O].[C][C][C][C][C][O][C],[C][C][C][C][O],{[][<]*O[>][<]}{[>][<]C[>][<]}{[>][<]C[>][<]}{[>][<]C[>][<]}{[>][<]C[>][<]}{[>][<]N[>][<]}{[>][<]C[>][<]}{[>][<]C[>][<]}{[>][<]C[>][<]}{[>][<]C[>][<]}{[>][<]C[>][<]}{[>][<]C[>][<]}{[>][<]C[>][<]}{[>][<]C[>][<]}{[>][<]C[>][<]}{[>][<]C[>][<]}{[>][<]C[>][<]}{[>][<]C=O[>][<]}{[>][<]O[>][<]}{[>][<]O[>][<]}{[>][<]C=O[>][<]}{[>][<]*C=O[>][]},O=C(C(=O)OOC(=O)CCCCCCCCCCCN(CCCCO[*]))[*].CCCCO,[C][Branch1_1][C][C][=O].[C][O][C][Branch1_1][C][C][=O].[C][O][C].[C][N][C][C][C][C][C][C][C][C][C][C][C][C][Branch1_1][C][C][=O].[C][C][C][C][C][O][C].[C][C][C][C][O],{[][<]*O[>][<]}{[>][<]C[>][<]}{[>][<]C[>][<]}{[>][<]C[>][<]}{[>][<]C[>][<]}{[>][<]N[>][<]}{[>][<]C[>][<]}{[>][<]C[>][<]}{[>][<]C[>][<]}{[>][<]C[>][<]}{[>][<]C[>][<]}{[>][<]C[>][<]}{[>][<]C[>][<]}{[>][<]C[>][<]}{[>][<]C[>][<]}{[>][<]C[>][<]}{[>][<]C[>][<]}{[>][<]C=O[>][<]}{[>][<]O[>][<]}{[>][<]O[>][<]}{[>][<]C=O[>][<]}{[>][<]*C=O[>][]}.CCCCO
269,peba,89.0,30.0,n-butanol,23.1,99.89254109,40,1.0,0.1923,0.050112,O=C(C(=O)OOC(=O)CCCCCCCCCCCN(CCCCO[*]))[*],CCCCO,"[2, 17, 0, 3, 1, 0, 0, 1, 0, 0, 3, 0, 0, 0, 0]",[C][Branch1_1][C][C][=O].[C][O][C][Branch1_1][C][C][=O].[C][O][C].[C][N][C][C][C][C][C][C][C][C][C][C][C][C][Branch1_1][C][C][=O].[C][C][C][C][C][O][C],[C][C][C][C][O],{[][<]*O[>][<]}{[>][<]C[>][<]}{[>][<]C[>][<]}{[>][<]C[>][<]}{[>][<]C[>][<]}{[>][<]N[>][<]}{[>][<]C[>][<]}{[>][<]C[>][<]}{[>][<]C[>][<]}{[>][<]C[>][<]}{[>][<]C[>][<]}{[>][<]C[>][<]}{[>][<]C[>][<]}{[>][<]C[>][<]}{[>][<]C[>][<]}{[>][<]C[>][<]}{[>][<]C[>][<]}{[>][<]C=O[>][<]}{[>][<]O[>][<]}{[>][<]O[>][<]}{[>][<]C=O[>][<]}{[>][<]*C=O[>][]},O=C(C(=O)OOC(=O)CCCCCCCCCCCN(CCCCO[*]))[*].CCCCO,[C][Branch1_1][C][C][=O].[C][O][C][Branch1_1][C][C][=O].[C][O][C].[C][N][C][C][C][C][C][C][C][C][C][C][C][C][Branch1_1][C][C][=O].[C][C][C][C][C][O][C].[C][C][C][C][O],{[][<]*O[>][<]}{[>][<]C[>][<]}{[>][<]C[>][<]}{[>][<]C[>][<]}{[>][<]C[>][<]}{[>][<]N[>][<]}{[>][<]C[>][<]}{[>][<]C[>][<]}{[>][<]C[>][<]}{[>][<]C[>][<]}{[>][<]C[>][<]}{[>][<]C[>][<]}{[>][<]C[>][<]}{[>][<]C[>][<]}{[>][<]C[>][<]}{[>][<]C[>][<]}{[>][<]C[>][<]}{[>][<]C=O[>][<]}{[>][<]O[>][<]}{[>][<]O[>][<]}{[>][<]C=O[>][<]}{[>][<]*C=O[>][]}.CCCCO
271,peba,89.0,30.0,n-butanol,23.1,99.58912769,40,1.0,0.3054,0.053708,O=C(C(=O)OOC(=O)CCCCCCCCCCCN(CCCCO[*]))[*],CCCCO,"[2, 17, 0, 3, 1, 0, 0, 1, 0, 0, 3, 0, 0, 0, 0]",[C][Branch1_1][C][C][=O].[C][O][C][Branch1_1][C][C][=O].[C][O][C].[C][N][C][C][C][C][C][C][C][C][C][C][C][C][Branch1_1][C][C][=O].[C][C][C][C][C][O][C],[C][C][C][C][O],{[][<]*O[>][<]}{[>][<]C[>][<]}{[>][<]C[>][<]}{[>][<]C[>][<]}{[>][<]C[>][<]}{[>][<]N[>][<]}{[>][<]C[>][<]}{[>][<]C[>][<]}{[>][<]C[>][<]}{[>][<]C[>][<]}{[>][<]C[>][<]}{[>][<]C[>][<]}{[>][<]C[>][<]}{[>][<]C[>][<]}{[>][<]C[>][<]}{[>][<]C[>][<]}{[>][<]C[>][<]}{[>][<]C=O[>][<]}{[>][<]O[>][<]}{[>][<]O[>][<]}{[>][<]C=O[>][<]}{[>][<]*C=O[>][]},O=C(C(=O)OOC(=O)CCCCCCCCCCCN(CCCCO[*]))[*].CCCCO,[C][Branch1_1][C][C][=O].[C][O][C][Branch1_1][C][C][=O].[C][O][C].[C][N][C][C][C][C][C][C][C][C][C][C][C][C][Branch1_1][C][C][=O].[C][C][C][C][C][O][C].[C][C][C][C][O],{[][<]*O[>][<]}{[>][<]C[>][<]}{[>][<]C[>][<]}{[>][<]C[>][<]}{[>][<]C[>][<]}{[>][<]N[>][<]}{[>][<]C[>][<]}{[>][<]C[>][<]}{[>][<]C[>][<]}{[>][<]C[>][<]}{[>][<]C[>][<]}{[>][<]C[>][<]}{[>][<]C[>][<]}{[>][<]C[>][<]}{[>][<]C[>][<]}{[>][<]C[>][<]}{[>][<]C[>][<]}{[>][<]C=O[>][<]}{[>][<]O[>][<]}{[>][<]O[>][<]}{[>][<]C=O[>][<]}{[>][<]*C=O[>][]}.CCCCO
274,peba,89.0,30.0,n-butanol,23.1,99.91782554,29,1.0,0.1172,0.071497,O=C(C(=O)OOC(=O)CCCCCCCCCCCN(CCCCO[*]))[*],CCCCO,"[2, 17, 0, 3, 1, 0, 0, 1, 0, 0, 3, 0, 0, 0, 0]",[C][Branch1_1][C][C][=O].[C][O][C][Branch1_1][C][C][=O].[C][O][C].[C][N][C][C][C][C][C][C][C][C][C][C][C][C][Branch1_1][C][C][=O].[C][C][C][C][C][O][C],[C][C][C][C][O],{[][<]*O[>][<]}{[>][<]C[>][<]}{[>][<]C[>][<]}{[>][<]C[>][<]}{[>][<]C[>][<]}{[>][<]N[>][<]}{[>][<]C[>][<]}{[>][<]C[>][<]}{[>][<]C[>][<]}{[>][<]C[>][<]}{[>][<]C[>][<]}{[>][<]C[>][<]}{[>][<]C[>][<]}{[>][<]C[>][<]}{[>][<]C[>][<]}{[>][<]C[>][<]}{[>][<]C[>][<]}{[>][<]C=O[>][<]}{[>][<]O[>][<]}{[>][<]O[>][<]}{[>][<]C=O[>][<]}{[>][<]*C=O[>][]},O=C(C(=O)OOC(=O)CCCCCCCCCCCN(CCCCO[*]))[*].CCCCO,[C][Branch1_1][C][C][=O].[C][O][C][Branch1_1][C][C][=O].[C][O][C].[C][N][C][C][C][C][C][C][C][C][C][C][C][C][Branch1_1][C][C][=O].[C][C][C][C][C][O][C].[C][C][C][C][O],{[][<]*O[>][<]}{[>][<]C[>][<]}{[>][<]C[>][<]}{[>][<]C[>][<]}{[>][<]C[>][<]}{[>][<]N[>][<]}{[>][<]C[>][<]}{[>][<]C[>][<]}{[>][<]C[>][<]}{[>][<]C[>][<]}{[>][<]C[>][<]}{[>][<]C[>][<]}{[>][<]C[>][<]}{[>][<]C[>][<]}{[>][<]C[>][<]}{[>][<]C[>][<]}{[>][<]C[>][<]}{[>][<]C=O[>][<]}{[>][<]O[>][<]}{[>][<]O[>][<]}{[>][<]C=O[>][<]}{[>][<]*C=O[>][]}.CCCCO