Index,Polymer,Contact_angle,Thickness_um,Solvent,Solvent_solubility_parameter_Mpa_sqrt,xw_wt_percent,Temp_C,Permeate_pressure_mbar,J_Total_flux_kg_m_2h_1,a_Separation_factor_wo,Polymer_SMILES,Solvent_SMILES,Sum_of_frags,Polymer_SELFIES,Solvent_SELFIES,Polymer_BigSMILES,PS_SMILES,PS_SELFIES,PS_BigSMILES
297,pdms,108.08219,10.0,n-butanol,23.1,99.0,40,2.1,0.946,0.022523,*O[Si](*)(C)C,CCCCO,"[3, 3, 0, 0, 1, 0, 0, 0, 0, 0, 1, 0, 0, 1, 0]",[Siexpl][Branch1_1][C][C][Branch1_1][C][C][Branch1_1][C][C][O][Branch1_1][C][C],[C][C][C][C][O],{[][<]*O[>][<]}{[>][<]*[Si](C)C[>][]},*O[Si](*)(C)C.CCCCO,[Siexpl][Branch1_1][C][C][Branch1_1][C][C][Branch1_1][C][C][O][Branch1_1][C][C].[C][C][C][C][O],{[][<]*O[>][<]}{[>][<]*[Si](C)C[>][]}.CCCCO
298,pdms,108.08219,10.0,n-butanol,23.1,99.5,40,2.1,1.064655172,0.021294,*O[Si](*)(C)C,CCCCO,"[3, 3, 0, 0, 1, 0, 0, 0, 0, 0, 1, 0, 0, 1, 0]",[Siexpl][Branch1_1][C][C][Branch1_1][C][C][Branch1_1][C][C][O][Branch1_1][C][C],[C][C][C][C][O],{[][<]*O[>][<]}{[>][<]*[Si](C)C[>][]},*O[Si](*)(C)C.CCCCO,[Siexpl][Branch1_1][C][C][Branch1_1][C][C][Branch1_1][C][C][O][Branch1_1][C][C].[C][C][C][C][O],{[][<]*O[>][<]}{[>][<]*[Si](C)C[>][]}.CCCCO
299,pdms,108.08219,10.0,n-butanol,23.1,99.0,40,2.1,1.258358663,0.023305,*O[Si](*)(C)C,CCCCO,"[3, 3, 0, 0, 1, 0, 0, 0, 0, 0, 1, 0, 0, 1, 0]",[Siexpl][Branch1_1][C][C][Branch1_1][C][C][Branch1_1][C][C][O][Branch1_1][C][C],[C][C][C][C][O],{[][<]*O[>][<]}{[>][<]*[Si](C)C[>][]},*O[Si](*)(C)C.CCCCO,[Siexpl][Branch1_1][C][C][Branch1_1][C][C][Branch1_1][C][C][O][Branch1_1][C][C].[C][C][C][C][O],{[][<]*O[>][<]}{[>][<]*[Si](C)C[>][]}.CCCCO
300,pdms,108.08219,10.0,n-butanol,23.1,99.0,40,2.1,1.282,0.02331,*O[Si](*)(C)C,CCCCO,"[3, 3, 0, 0, 1, 0, 0, 0, 0, 0, 1, 0, 0, 1, 0]",[Siexpl][Branch1_1][C][C][Branch1_1][C][C][Branch1_1][C][C][O][Branch1_1][C][C],[C][C][C][C][O],{[][<]*O[>][<]}{[>][<]*[Si](C)C[>][]},*O[Si](*)(C)C.CCCCO,[Siexpl][Branch1_1][C][C][Branch1_1][C][C][Branch1_1][C][C][O][Branch1_1][C][C].[C][C][C][C][O],{[][<]*O[>][<]}{[>][<]*[Si](C)C[>][]}.CCCCO
301,pdms,108.08219,10.0,n-butanol,23.1,99.0,40,2.1,1.284482759,0.023294,*O[Si](*)(C)C,CCCCO,"[3, 3, 0, 0, 1, 0, 0, 0, 0, 0, 1, 0, 0, 1, 0]",[Siexpl][Branch1_1][C][C][Branch1_1][C][C][Branch1_1][C][C][O][Branch1_1][C][C],[C][C][C][C][O],{[][<]*O[>][<]}{[>][<]*[Si](C)C[>][]},*O[Si](*)(C)C.CCCCO,[Siexpl][Branch1_1][C][C][Branch1_1][C][C][Branch1_1][C][C][O][Branch1_1][C][C].[C][C][C][C][O],{[][<]*O[>][<]}{[>][<]*[Si](C)C[>][]}.CCCCO
302,pdms,108.08219,10.0,n-butanol,23.1,98.0,40,2.1,1.620689655,0.024442,*O[Si](*)(C)C,CCCCO,"[3, 3, 0, 0, 1, 0, 0, 0, 0, 0, 1, 0, 0, 1, 0]",[Siexpl][Branch1_1][C][C][Branch1_1][C][C][Branch1_1][C][C][O][Branch1_1][C][C],[C][C][C][C][O],{[][<]*O[>][<]}{[>][<]*[Si](C)C[>][]},*O[Si](*)(C)C.CCCCO,[Siexpl][Branch1_1][C][C][Branch1_1][C][C][Branch1_1][C][C][O][Branch1_1][C][C].[C][C][C][C][O],{[][<]*O[>][<]}{[>][<]*[Si](C)C[>][]}.CCCCO
303,pdms,108.08219,10.0,n-butanol,23.1,99.0,50,2.1,1.957446809,0.023605,*O[Si](*)(C)C,CCCCO,"[3, 3, 0, 0, 1, 0, 0, 0, 0, 0, 1, 0, 0, 1, 0]",[Siexpl][Branch1_1][C][C][Branch1_1][C][C][Branch1_1][C][C][O][Branch1_1][C][C],[C][C][C][C][O],{[][<]*O[>][<]}{[>][<]*[Si](C)C[>][]},*O[Si](*)(C)C.CCCCO,[Siexpl][Branch1_1][C][C][Branch1_1][C][C][Branch1_1][C][C][O][Branch1_1][C][C].[C][C][C][C][O],{[][<]*O[>][<]}{[>][<]*[Si](C)C[>][]}.CCCCO
304,pdms,108.08219,10.0,n-butanol,23.1,97.0,40,2.1,1.989224138,0.025709,*O[Si](*)(C)C,CCCCO,"[3, 3, 0, 0, 1, 0, 0, 0, 0, 0, 1, 0, 0, 1, 0]",[Siexpl][Branch1_1][C][C][Branch1_1][C][C][Branch1_1][C][C][O][Branch1_1][C][C],[C][C][C][C][O],{[][<]*O[>][<]}{[>][<]*[Si](C)C[>][]},*O[Si](*)(C)C.CCCCO,[Siexpl][Branch1_1][C][C][Branch1_1][C][C][Branch1_1][C][C][O][Branch1_1][C][C].[C][C][C][C][O],{[][<]*O[>][<]}{[>][<]*[Si](C)C[>][]}.CCCCO
305,pdms,108.08219,10.0,n-butanol,23.1,96.0,40,2.1,2.435344828,0.026436,*O[Si](*)(C)C,CCCCO,"[3, 3, 0, 0, 1, 0, 0, 0, 0, 0, 1, 0, 0, 1, 0]",[Siexpl][Branch1_1][C][C][Branch1_1][C][C][Branch1_1][C][C][O][Branch1_1][C][C],[C][C][C][C][O],{[][<]*O[>][<]}{[>][<]*[Si](C)C[>][]},*O[Si](*)(C)C.CCCCO,[Siexpl][Branch1_1][C][C][Branch1_1][C][C][Branch1_1][C][C][O][Branch1_1][C][C].[C][C][C][C][O],{[][<]*O[>][<]}{[>][<]*[Si](C)C[>][]}.CCCCO
306,pdms,108.08219,10.0,n-butanol,23.1,99.0,60,2.1,2.671732523,0.025229,*O[Si](*)(C)C,CCCCO,"[3, 3, 0, 0, 1, 0, 0, 0, 0, 0, 1, 0, 0, 1, 0]",[Siexpl][Branch1_1][C][C][Branch1_1][C][C][Branch1_1][C][C][O][Branch1_1][C][C],[C][C][C][C][O],{[][<]*O[>][<]}{[>][<]*[Si](C)C[>][]},*O[Si](*)(C)C.CCCCO,[Siexpl][Branch1_1][C][C][Branch1_1][C][C][Branch1_1][C][C][O][Branch1_1][C][C].[C][C][C][C][O],{[][<]*O[>][<]}{[>][<]*[Si](C)C[>][]}.CCCCO
307,pdms,108.08219,10.0,n-butanol,23.1,99.0,70,2.1,3.6443769,0.0275,*O[Si](*)(C)C,CCCCO,"[3, 3, 0, 0, 1, 0, 0, 0, 0, 0, 1, 0, 0, 1, 0]",[Siexpl][Branch1_1][C][C][Branch1_1][C][C][Branch1_1][C][C][O][Branch1_1][C][C],[C][C][C][C][O],{[][<]*O[>][<]}{[>][<]*[Si](C)C[>][]},*O[Si](*)(C)C.CCCCO,[Siexpl][Branch1_1][C][C][Branch1_1][C][C][Branch1_1][C][C][O][Branch1_1][C][C].[C][C][C][C][O],{[][<]*O[>][<]}{[>][<]*[Si](C)C[>][]}.CCCCO
308,pdms,108.08219,10.0,n-butanol,23.1,99.0,80,2.1,4.76899696,0.028497,*O[Si](*)(C)C,CCCCO,"[3, 3, 0, 0, 1, 0, 0, 0, 0, 0, 1, 0, 0, 1, 0]",[Siexpl][Branch1_1][C][C][Branch1_1][C][C][Branch1_1][C][C][O][Branch1_1][C][C],[C][C][C][C][O],{[][<]*O[>][<]}{[>][<]*[Si](C)C[>][]},*O[Si](*)(C)C.CCCCO,[Siexpl][Branch1_1][C][C][Branch1_1][C][C][Branch1_1][C][C][O][Branch1_1][C][C].[C][C][C][C][O],{[][<]*O[>][<]}{[>][<]*[Si](C)C[>][]}.CCCCO
310,pdms,108.08219,4.0,n-butanol,23.1,99.0,40,2.1,1.240065147,0.033521,*O[Si](*)(C)C,CCCCO,"[3, 3, 0, 0, 1, 0, 0, 0, 0, 0, 1, 0, 0, 1, 0]",[Siexpl][Branch1_1][C][C][Branch1_1][C][C][Branch1_1][C][C][O][Branch1_1][C][C],[C][C][C][C][O],{[][<]*O[>][<]}{[>][<]*[Si](C)C[>][]},*O[Si](*)(C)C.CCCCO,[Siexpl][Branch1_1][C][C][Branch1_1][C][C][Branch1_1][C][C][O][Branch1_1][C][C].[C][C][C][C][O],{[][<]*O[>][<]}{[>][<]*[Si](C)C[>][]}.CCCCO
311,pdms,108.08219,2.0,n-butanol,23.1,99.0,40,2.1,1.880130293,0.03863,*O[Si](*)(C)C,CCCCO,"[3, 3, 0, 0, 1, 0, 0, 0, 0, 0, 1, 0, 0, 1, 0]",[Siexpl][Branch1_1][C][C][Branch1_1][C][C][Branch1_1][C][C][O][Branch1_1][C][C],[C][C][C][C][O],{[][<]*O[>][<]}{[>][<]*[Si](C)C[>][]},*O[Si](*)(C)C.CCCCO,[Siexpl][Branch1_1][C][C][Branch1_1][C][C][Branch1_1][C][C][O][Branch1_1][C][C].[C][C][C][C][O],{[][<]*O[>][<]}{[>][<]*[Si](C)C[>][]}.CCCCO
312,pdms,108.08219,10.0,n-butanol,23.1,98.5,55,2.0,0.8,0.023816,*O[Si](*)(C)C,CCCCO,"[3, 3, 0, 0, 1, 0, 0, 0, 0, 0, 1, 0, 0, 1, 0]",[Siexpl][Branch1_1][C][C][Branch1_1][C][C][Branch1_1][C][C][O][Branch1_1][C][C],[C][C][C][C][O],{[][<]*O[>][<]}{[>][<]*[Si](C)C[>][]},*O[Si](*)(C)C.CCCCO,[Siexpl][Branch1_1][C][C][Branch1_1][C][C][Branch1_1][C][C][O][Branch1_1][C][C].[C][C][C][C][O],{[][<]*O[>][<]}{[>][<]*[Si](C)C[>][]}.CCCCO
313,pdms,108.08219,25.01414528,n-butanol,23.1,99.0,40,4.0,0.221771424,0.018849,*O[Si](*)(C)C,CCCCO,"[3, 3, 0, 0, 1, 0, 0, 0, 0, 0, 1, 0, 0, 1, 0]",[Siexpl][Branch1_1][C][C][Branch1_1][C][C][Branch1_1][C][C][O][Branch1_1][C][C],[C][C][C][C][O],{[][<]*O[>][<]}{[>][<]*[Si](C)C[>][]},*O[Si](*)(C)C.CCCCO,[Siexpl][Branch1_1][C][C][Branch1_1][C][C][Branch1_1][C][C][O][Branch1_1][C][C].[C][C][C][C][O],{[][<]*O[>][<]}{[>][<]*[Si](C)C[>][]}.CCCCO
314,pdms,108.08219,15.02445855,n-butanol,23.1,99.0,40,4.0,0.382658555,0.017288,*O[Si](*)(C)C,CCCCO,"[3, 3, 0, 0, 1, 0, 0, 0, 0, 0, 1, 0, 0, 1, 0]",[Siexpl][Branch1_1][C][C][Branch1_1][C][C][Branch1_1][C][C][O][Branch1_1][C][C],[C][C][C][C][O],{[][<]*O[>][<]}{[>][<]*[Si](C)C[>][]},*O[Si](*)(C)C.CCCCO,[Siexpl][Branch1_1][C][C][Branch1_1][C][C][Branch1_1][C][C][O][Branch1_1][C][C].[C][C][C][C][O],{[][<]*O[>][<]}{[>][<]*[Si](C)C[>][]}.CCCCO
316,pdms,108.08219,5.551854971,n-butanol,23.1,99.0,40,4.0,0.610042672,0.022432,*O[Si](*)(C)C,CCCCO,"[3, 3, 0, 0, 1, 0, 0, 0, 0, 0, 1, 0, 0, 1, 0]",[Siexpl][Branch1_1][C][C][Branch1_1][C][C][Branch1_1][C][C][O][Branch1_1][C][C],[C][C][C][C][O],{[][<]*O[>][<]}{[>][<]*[Si](C)C[>][]},*O[Si](*)(C)C.CCCCO,[Siexpl][Branch1_1][C][C][Branch1_1][C][C][Branch1_1][C][C][O][Branch1_1][C][C].[C][C][C][C][O],{[][<]*O[>][<]}{[>][<]*[Si](C)C[>][]}.CCCCO
317,pdms,108.08219,4.405094191,n-butanol,23.1,99.69,40,4.0,0.644444444,0.026829,*O[Si](*)(C)C,CCCCO,"[3, 3, 0, 0, 1, 0, 0, 0, 0, 0, 1, 0, 0, 1, 0]",[Siexpl][Branch1_1][C][C][Branch1_1][C][C][Branch1_1][C][C][O][Branch1_1][C][C],[C][C][C][C][O],{[][<]*O[>][<]}{[>][<]*[Si](C)C[>][]},*O[Si](*)(C)C.CCCCO,[Siexpl][Branch1_1][C][C][Branch1_1][C][C][Branch1_1][C][C][O][Branch1_1][C][C].[C][C][C][C][O],{[][<]*O[>][<]}{[>][<]*[Si](C)C[>][]}.CCCCO
318,pdms,108.08219,4.405094191,n-butanol,23.1,99.0,30,4.0,0.7073,0.025529,*O[Si](*)(C)C,CCCCO,"[3, 3, 0, 0, 1, 0, 0, 0, 0, 0, 1, 0, 0, 1, 0]",[Siexpl][Branch1_1][C][C][Branch1_1][C][C][Branch1_1][C][C][O][Branch1_1][C][C],[C][C][C][C][O],{[][<]*O[>][<]}{[>][<]*[Si](C)C[>][]},*O[Si](*)(C)C.CCCCO,[Siexpl][Branch1_1][C][C][Branch1_1][C][C][Branch1_1][C][C][O][Branch1_1][C][C].[C][C][C][C][O],{[][<]*O[>][<]}{[>][<]*[Si](C)C[>][]}.CCCCO
319,pdms,108.08219,4.405094191,n-butanol,23.1,99.0,40,4.0,0.720574516,0.02381,*O[Si](*)(C)C,CCCCO,"[3, 3, 0, 0, 1, 0, 0, 0, 0, 0, 1, 0, 0, 1, 0]",[Siexpl][Branch1_1][C][C][Branch1_1][C][C][Branch1_1][C][C][O][Branch1_1][C][C],[C][C][C][C][O],{[][<]*O[>][<]}{[>][<]*[Si](C)C[>][]},*O[Si](*)(C)C.CCCCO,[Siexpl][Branch1_1][C][C][Branch1_1][C][C][Branch1_1][C][C][O][Branch1_1][C][C].[C][C][C][C][O],{[][<]*O[>][<]}{[>][<]*[Si](C)C[>][]}.CCCCO
322,pdms,108.08219,4.405094191,n-butanol,23.1,98.49333333,40,4.0,0.877777778,0.023404,*O[Si](*)(C)C,CCCCO,"[3, 3, 0, 0, 1, 0, 0, 0, 0, 0, 1, 0, 0, 1, 0]",[Siexpl][Branch1_1][C][C][Branch1_1][C][C][Branch1_1][C][C][O][Branch1_1][C][C],[C][C][C][C][O],{[][<]*O[>][<]}{[>][<]*[Si](C)C[>][]},*O[Si](*)(C)C.CCCCO,[Siexpl][Branch1_1][C][C][Branch1_1][C][C][Branch1_1][C][C][O][Branch1_1][C][C].[C][C][C][C][O],{[][<]*O[>][<]}{[>][<]*[Si](C)C[>][]}.CCCCO
324,pdms,108.08219,4.405094191,n-butanol,23.1,97.28,40,4.0,1.138888889,0.02129,*O[Si](*)(C)C,CCCCO,"[3, 3, 0, 0, 1, 0, 0, 0, 0, 0, 1, 0, 0, 1, 0]",[Siexpl][Branch1_1][C][C][Branch1_1][C][C][Branch1_1][C][C][O][Branch1_1][C][C],[C][C][C][C][O],{[][<]*O[>][<]}{[>][<]*[Si](C)C[>][]},*O[Si](*)(C)C.CCCCO,[Siexpl][Branch1_1][C][C][Branch1_1][C][C][Branch1_1][C][C][O][Branch1_1][C][C].[C][C][C][C][O],{[][<]*O[>][<]}{[>][<]*[Si](C)C[>][]}.CCCCO
325,pdms,108.08219,4.405094191,n-butanol,23.1,99.0,50,4.0,1.183937824,0.022494,*O[Si](*)(C)C,CCCCO,"[3, 3, 0, 0, 1, 0, 0, 0, 0, 0, 1, 0, 0, 1, 0]",[Siexpl][Branch1_1][C][C][Branch1_1][C][C][Branch1_1][C][C][O][Branch1_1][C][C],[C][C][C][C][O],{[][<]*O[>][<]}{[>][<]*[Si](C)C[>][]},*O[Si](*)(C)C.CCCCO,[Siexpl][Branch1_1][C][C][Branch1_1][C][C][Branch1_1][C][C][O][Branch1_1][C][C].[C][C][C][C][O],{[][<]*O[>][<]}{[>][<]*[Si](C)C[>][]}.CCCCO
326,pdms,108.08219,4.405094191,n-butanol,23.1,99.0,60,4.0,1.588082902,0.020887,*O[Si](*)(C)C,CCCCO,"[3, 3, 0, 0, 1, 0, 0, 0, 0, 0, 1, 0, 0, 1, 0]",[Siexpl][Branch1_1][C][C][Branch1_1][C][C][Branch1_1][C][C][O][Branch1_1][C][C],[C][C][C][C][O],{[][<]*O[>][<]}{[>][<]*[Si](C)C[>][]},*O[Si](*)(C)C.CCCCO,[Siexpl][Branch1_1][C][C][Branch1_1][C][C][Branch1_1][C][C][O][Branch1_1][C][C].[C][C][C][C][O],{[][<]*O[>][<]}{[>][<]*[Si](C)C[>][]}.CCCCO
327,pdms,108.08219,4.405094191,n-butanol,23.1,99.0,70,4.0,2.20984456,0.021588,*O[Si](*)(C)C,CCCCO,"[3, 3, 0, 0, 1, 0, 0, 0, 0, 0, 1, 0, 0, 1, 0]",[Siexpl][Branch1_1][C][C][Branch1_1][C][C][Branch1_1][C][C][O][Branch1_1][C][C],[C][C][C][C][O],{[][<]*O[>][<]}{[>][<]*[Si](C)C[>][]},*O[Si](*)(C)C.CCCCO,[Siexpl][Branch1_1][C][C][Branch1_1][C][C][Branch1_1][C][C][O][Branch1_1][C][C].[C][C][C][C][O],{[][<]*O[>][<]}{[>][<]*[Si](C)C[>][]}.CCCCO
328,pdms,110.0,13.3,n-butanol,23.1,99.0,40,1.0,0.282,0.025907,*O[Si](*)(C)C,CCCCO,"[3, 3, 0, 0, 1, 0, 0, 0, 0, 0, 1, 0, 0, 1, 0]",[Siexpl][Branch1_1][C][C][Branch1_1][C][C][Branch1_1][C][C][O][Branch1_1][C][C],[C][C][C][C][O],{[][<]*O[>][<]}{[>][<]*[Si](C)C[>][]},*O[Si](*)(C)C.CCCCO,[Siexpl][Branch1_1][C][C][Branch1_1][C][C][Branch1_1][C][C][O][Branch1_1][C][C].[C][C][C][C][O],{[][<]*O[>][<]}{[>][<]*[Si](C)C[>][]}.CCCCO
329,pdms,108.2,11.5,n-butanol,23.1,98.5,55,0.6,0.6926829,0.023782,*O[Si](*)(C)C,CCCCO,"[3, 3, 0, 0, 1, 0, 0, 0, 0, 0, 1, 0, 0, 1, 0]",[Siexpl][Branch1_1][C][C][Branch1_1][C][C][Branch1_1][C][C][O][Branch1_1][C][C],[C][C][C][C][O],{[][<]*O[>][<]}{[>][<]*[Si](C)C[>][]},*O[Si](*)(C)C.CCCCO,[Siexpl][Branch1_1][C][C][Branch1_1][C][C][Branch1_1][C][C][O][Branch1_1][C][C].[C][C][C][C][O],{[][<]*O[>][<]}{[>][<]*[Si](C)C[>][]}.CCCCO
330,pdms,109.0,10.0,ethanol,26.5,95.0,40,3.0,0.468208092,0.138462,*O[Si](*)(C)C,CCO,"[3, 1, 0, 0, 1, 0, 0, 0, 0, 0, 1, 0, 0, 1, 0]",[Siexpl][Branch1_1][C][C][Branch1_1][C][C][Branch1_1][C][C][O][Branch1_1][C][C],[C][C][O],{[][<]*O[>][<]}{[>][<]*[Si](C)C[>][]},*O[Si](*)(C)C.CCO,[Siexpl][Branch1_1][C][C][Branch1_1][C][C][Branch1_1][C][C][O][Branch1_1][C][C].[C][C][O],{[][<]*O[>][<]}{[>][<]*[Si](C)C[>][]}.CCO
331,pdms,109.0,10.0,n-butanol,23.1,95.0,40,3.0,0.589595376,0.05,*O[Si](*)(C)C,CCCCO,"[3, 3, 0, 0, 1, 0, 0, 0, 0, 0, 1, 0, 0, 1, 0]",[Siexpl][Branch1_1][C][C][Branch1_1][C][C][Branch1_1][C][C][O][Branch1_1][C][C],[C][C][C][C][O],{[][<]*O[>][<]}{[>][<]*[Si](C)C[>][]},*O[Si](*)(C)C.CCCCO,[Siexpl][Branch1_1][C][C][Branch1_1][C][C][Branch1_1][C][C][O][Branch1_1][C][C].[C][C][C][C][O],{[][<]*O[>][<]}{[>][<]*[Si](C)C[>][]}.CCCCO
332,pva,74.0,3.0,methanol,29.6,15.0,50,3.0,0.270805067,30.434783,C(*)C(*)(O),CO,"[1, 1, 1, 0, 2, 0, 0, 0, 0, 0, 0, 0, 0, 0, 0]",[C][Branch1_1][C][C][C][Branch1_1][C][C][Branch1_1][C][O],[C][O],{[][<]*C[>][<]}{[>][<]*CO[>][]},C(*)C(*)(O).CO,[C][Branch1_1][C][C][C][Branch1_1][C][C][Branch1_1][C][O].[C][O],{[][<]*C[>][<]}{[>][<]*CO[>][]}.CO
333,pva,74.0,3.0,methanol,29.6,15.0,60,3.0,0.270805067,30.434783,C(*)C(*)(O),CO,"[1, 1, 1, 0, 2, 0, 0, 0, 0, 0, 0, 0, 0, 0, 0]",[C][Branch1_1][C][C][C][Branch1_1][C][C][Branch1_1][C][O],[C][O],{[][<]*C[>][<]}{[>][<]*CO[>][]},C(*)C(*)(O).CO,[C][Branch1_1][C][C][C][Branch1_1][C][C][Branch1_1][C][O].[C][O],{[][<]*C[>][<]}{[>][<]*CO[>][]}.CO
334,pva,74.0,3.0,methanol,29.6,1.0,50,3.0,0.271142921,1176.811594,C(*)C(*)(O),CO,"[1, 1, 1, 0, 2, 0, 0, 0, 0, 0, 0, 0, 0, 0, 0]",[C][Branch1_1][C][C][C][Branch1_1][C][C][Branch1_1][C][O],[C][O],{[][<]*C[>][<]}{[>][<]*CO[>][]},C(*)C(*)(O).CO,[C][Branch1_1][C][C][C][Branch1_1][C][C][Branch1_1][C][O].[C][O],{[][<]*C[>][<]}{[>][<]*CO[>][]}.CO
335,pva,74.0,3.0,methanol,29.6,10.0,50,3.0,0.285797323,101.449275,C(*)C(*)(O),CO,"[1, 1, 1, 0, 2, 0, 0, 0, 0, 0, 0, 0, 0, 0, 0]",[C][Branch1_1][C][C][C][Branch1_1][C][C][Branch1_1][C][O],[C][O],{[][<]*C[>][<]}{[>][<]*CO[>][]},C(*)C(*)(O).CO,[C][Branch1_1][C][C][C][Branch1_1][C][C][Branch1_1][C][O].[C][O],{[][<]*C[>][<]}{[>][<]*CO[>][]}.CO
336,pva,74.0,3.0,methanol,29.6,3.0,50,3.0,0.290745611,831.884058,C(*)C(*)(O),CO,"[1, 1, 1, 0, 2, 0, 0, 0, 0, 0, 0, 0, 0, 0, 0]",[C][Branch1_1][C][C][C][Branch1_1][C][C][Branch1_1][C][O],[C][O],{[][<]*C[>][<]}{[>][<]*CO[>][]},C(*)C(*)(O).CO,[C][Branch1_1][C][C][C][Branch1_1][C][C][Branch1_1][C][O].[C][O],{[][<]*C[>][<]}{[>][<]*CO[>][]}.CO
337,pva,74.0,3.0,methanol,29.6,5.0,50,3.0,0.300587959,547.826087,C(*)C(*)(O),CO,"[1, 1, 1, 0, 2, 0, 0, 0, 0, 0, 0, 0, 0, 0, 0]",[C][Branch1_1][C][C][C][Branch1_1][C][C][Branch1_1][C][O],[C][O],{[][<]*C[>][<]}{[>][<]*CO[>][]},C(*)C(*)(O).CO,[C][Branch1_1][C][C][C][Branch1_1][C][C][Branch1_1][C][O].[C][O],{[][<]*C[>][<]}{[>][<]*CO[>][]}.CO
338,pva,74.0,3.0,methanol,29.6,20.0,50,3.0,0.330898221,20.289855,C(*)C(*)(O),CO,"[1, 1, 1, 0, 2, 0, 0, 0, 0, 0, 0, 0, 0, 0, 0]",[C][Branch1_1][C][C][C][Branch1_1][C][C][Branch1_1][C][O],[C][O],{[][<]*C[>][<]}{[>][<]*CO[>][]},C(*)C(*)(O).CO,[C][Branch1_1][C][C][C][Branch1_1][C][C][Branch1_1][C][O].[C][O],{[][<]*C[>][<]}{[>][<]*CO[>][]}.CO
339,pva,74.0,3.0,methanol,29.6,20.0,60,3.0,0.332481466,20.289855,C(*)C(*)(O),CO,"[1, 1, 1, 0, 2, 0, 0, 0, 0, 0, 0, 0, 0, 0, 0]",[C][Branch1_1][C][C][C][Branch1_1][C][C][Branch1_1][C][O],[C][O],{[][<]*C[>][<]}{[>][<]*CO[>][]},C(*)C(*)(O).CO,[C][Branch1_1][C][C][C][Branch1_1][C][C][Branch1_1][C][O].[C][O],{[][<]*C[>][<]}{[>][<]*CO[>][]}.CO
341,pva,74.0,3.0,methanol,29.6,1.0,60,3.0,0.419519863,1247.826087,C(*)C(*)(O),CO,"[1, 1, 1, 0, 2, 0, 0, 0, 0, 0, 0, 0, 0, 0, 0]",[C][Branch1_1][C][C][C][Branch1_1][C][C][Branch1_1][C][O],[C][O],{[][<]*C[>][<]}{[>][<]*CO[>][]},C(*)C(*)(O).CO,[C][Branch1_1][C][C][C][Branch1_1][C][C][Branch1_1][C][O].[C][O],{[][<]*C[>][<]}{[>][<]*CO[>][]}.CO
342,pva,74.0,3.0,methanol,29.6,10.0,60,3.0,0.432726751,111.594203,C(*)C(*)(O),CO,"[1, 1, 1, 0, 2, 0, 0, 0, 0, 0, 0, 0, 0, 0, 0]",[C][Branch1_1][C][C][C][Branch1_1][C][C][Branch1_1][C][O],[C][O],{[][<]*C[>][<]}{[>][<]*CO[>][]},C(*)C(*)(O).CO,[C][Branch1_1][C][C][C][Branch1_1][C][C][Branch1_1][C][O].[C][O],{[][<]*C[>][<]}{[>][<]*CO[>][]}.CO
344,pva,74.0,3.0,methanol,29.6,5.0,60,3.0,0.475679607,547.826087,C(*)C(*)(O),CO,"[1, 1, 1, 0, 2, 0, 0, 0, 0, 0, 0, 0, 0, 0, 0]",[C][Branch1_1][C][C][C][Branch1_1][C][C][Branch1_1][C][O],[C][O],{[][<]*C[>][<]}{[>][<]*CO[>][]},C(*)C(*)(O).CO,[C][Branch1_1][C][C][C][Branch1_1][C][C][Branch1_1][C][O].[C][O],{[][<]*C[>][<]}{[>][<]*CO[>][]}.CO
345,pva,74.0,3.0,methanol,29.6,15.0,70,3.0,0.487656633,30.434783,C(*)C(*)(O),CO,"[1, 1, 1, 0, 2, 0, 0, 0, 0, 0, 0, 0, 0, 0, 0]",[C][Branch1_1][C][C][C][Branch1_1][C][C][Branch1_1][C][O],[C][O],{[][<]*C[>][<]}{[>][<]*CO[>][]},C(*)C(*)(O).CO,[C][Branch1_1][C][C][C][Branch1_1][C][C][Branch1_1][C][O].[C][O],{[][<]*C[>][<]}{[>][<]*CO[>][]}.CO
346,pva,74.0,3.0,methanol,29.6,3.0,70,3.0,0.5798413,913.043478,C(*)C(*)(O),CO,"[1, 1, 1, 0, 2, 0, 0, 0, 0, 0, 0, 0, 0, 0, 0]",[C][Branch1_1][C][C][C][Branch1_1][C][C][Branch1_1][C][O],[C][O],{[][<]*C[>][<]}{[>][<]*CO[>][]},C(*)C(*)(O).CO,[C][Branch1_1][C][C][C][Branch1_1][C][C][Branch1_1][C][O].[C][O],{[][<]*C[>][<]}{[>][<]*CO[>][]}.CO
348,pva,74.0,3.0,methanol,29.6,5.0,70,3.0,0.615752926,547.826087,C(*)C(*)(O),CO,"[1, 1, 1, 0, 2, 0, 0, 0, 0, 0, 0, 0, 0, 0, 0]",[C][Branch1_1][C][C][C][Branch1_1][C][C][Branch1_1][C][O],[C][O],{[][<]*C[>][<]}{[>][<]*CO[>][]},C(*)C(*)(O).CO,[C][Branch1_1][C][C][C][Branch1_1][C][C][Branch1_1][C][O].[C][O],{[][<]*C[>][<]}{[>][<]*CO[>][]}.CO
351,pdms,108.08219,25.0,ipa,23.5,96.0,30,1.0,0.30375,0.077143,*O[Si](*)(C)C,CC(C)O,"[4, 0, 1, 0, 1, 0, 0, 0, 0, 0, 1, 0, 0, 1, 0]",[Siexpl][Branch1_1][C][C][Branch1_1][C][C][Branch1_1][C][C][O][Branch1_1][C][C],[C][C][Branch1_1][C][C][O],{[][<]*O[>][<]}{[>][<]*[Si](C)C[>][]},*O[Si](*)(C)C.CC(C)O,[Siexpl][Branch1_1][C][C][Branch1_1][C][C][Branch1_1][C][C][O][Branch1_1][C][C].[C][C][Branch1_1][C][C][O],{[][<]*O[>][<]}{[>][<]*[Si](C)C[>][]}.CC(C)O
353,pdms,108.08219,25.0,ipa,23.5,93.0,30,1.0,0.429032258,0.086667,*O[Si](*)(C)C,CC(C)O,"[4, 0, 1, 0, 1, 0, 0, 0, 0, 0, 1, 0, 0, 1, 0]",[Siexpl][Branch1_1][C][C][Branch1_1][C][C][Branch1_1][C][C][O][Branch1_1][C][C],[C][C][Branch1_1][C][C][O],{[][<]*O[>][<]}{[>][<]*[Si](C)C[>][]},*O[Si](*)(C)C.CC(C)O,[Siexpl][Branch1_1][C][C][Branch1_1][C][C][Branch1_1][C][C][O][Branch1_1][C][C].[C][C][Branch1_1][C][C][O],{[][<]*O[>][<]}{[>][<]*[Si](C)C[>][]}.CC(C)O
354,pdms,108.08219,25.0,ipa,23.5,96.0,40,1.0,0.46125,0.082653,*O[Si](*)(C)C,CC(C)O,"[4, 0, 1, 0, 1, 0, 0, 0, 0, 0, 1, 0, 0, 1, 0]",[Siexpl][Branch1_1][C][C][Branch1_1][C][C][Branch1_1][C][C][O][Branch1_1][C][C],[C][C][Branch1_1][C][C][O],{[][<]*O[>][<]}{[>][<]*[Si](C)C[>][]},*O[Si](*)(C)C.CC(C)O,[Siexpl][Branch1_1][C][C][Branch1_1][C][C][Branch1_1][C][C][O][Branch1_1][C][C].[C][C][Branch1_1][C][C][O],{[][<]*O[>][<]}{[>][<]*[Si](C)C[>][]}.CC(C)O
355,pdms,108.08219,25.0,ipa,23.5,91.0,30,1.0,0.609677419,0.096296,*O[Si](*)(C)C,CC(C)O,"[4, 0, 1, 0, 1, 0, 0, 0, 0, 0, 1, 0, 0, 1, 0]",[Siexpl][Branch1_1][C][C][Branch1_1][C][C][Branch1_1][C][C][O][Branch1_1][C][C],[C][C][Branch1_1][C][C][O],{[][<]*O[>][<]}{[>][<]*[Si](C)C[>][]},*O[Si](*)(C)C.CC(C)O,[Siexpl][Branch1_1][C][C][Branch1_1][C][C][Branch1_1][C][C][O][Branch1_1][C][C].[C][C][Branch1_1][C][C][O],{[][<]*O[>][<]}{[>][<]*[Si](C)C[>][]}.CC(C)O