Index,Polymer,Contact_angle,Thickness_um,Solvent,Solvent_solubility_parameter_Mpa_sqrt,xw_wt_percent,Temp_C,Permeate_pressure_mbar,J_Total_flux_kg_m_2h_1,a_Separation_factor_wo,Polymer_SMILES,Solvent_SMILES,Sum_of_frags,Polymer_SELFIES,Solvent_SELFIES,Polymer_BigSMILES,PS_SMILES,PS_SELFIES,PS_BigSMILES
525,alginate,37.37,50.0,acetic_acid,21.4,10.0,40,13.3,0.154,15.0,O=C(O)C1OC(C[*])C(O)C(O)C1O(C[*]),CC(=O)O,"[1, 0, 10, 3, 7, 0, 0, 0, 0, 0, 4, 0, 0, 0, 0]",[O][=C][Branch1_1][C][O][C][O][C][Branch1_1][C][C][C][Branch1_1][C][O][C][Branch1_1][C][O][C][Ring1][Branch2_2][O][Branch1_1][C][C].[O][=C][Branch1_1][C][O][C][O][C][Branch1_1][C][C][C][Branch1_1][C][O][C][Branch1_1][C][O][C][Ring1][Branch2_2][O][Branch1_1][C][C],[C][C][Branch1_2][C][=O][O],{[][<]*C[>][<]}{[>][<]O=C(O)C1CC(O)C(O)CO1[>][<]}{[>][<]O[>][<]}{[>][<]*C[>][]},O=C(O)C1OC(C[*])C(O)C(O)C1O(C[*]).CC(=O)O,[O][=C][Branch1_1][C][O][C][O][C][Branch1_1][C][C][C][Branch1_1][C][O][C][Branch1_1][C][O][C][Ring1][Branch2_2][O][Branch1_1][C][C].[O][=C][Branch1_1][C][O][C][O][C][Branch1_1][C][C][C][Branch1_1][C][O][C][Branch1_1][C][O][C][Ring1][Branch2_2][O][Branch1_1][C][C].[C][C][Branch1_2][C][=O][O],{[][<]*C[>][<]}{[>][<]O=C(O)C1CC(O)C(O)CO1[>][<]}{[>][<]O[>][<]}{[>][<]*C[>][]}.CC(=O)O
526,alginate,37.37,50.0,acetic_acid,21.4,30.0,30,13.3,0.168,9.0,O=C(O)C1OC(C[*])C(O)C(O)C1O(C[*]),CC(=O)O,"[1, 0, 10, 3, 7, 0, 0, 0, 0, 0, 4, 0, 0, 0, 0]",[O][=C][Branch1_1][C][O][C][O][C][Branch1_1][C][C][C][Branch1_1][C][O][C][Branch1_1][C][O][C][Ring1][Branch2_2][O][Branch1_1][C][C].[O][=C][Branch1_1][C][O][C][O][C][Branch1_1][C][C][C][Branch1_1][C][O][C][Branch1_1][C][O][C][Ring1][Branch2_2][O][Branch1_1][C][C],[C][C][Branch1_2][C][=O][O],{[][<]*C[>][<]}{[>][<]O=C(O)C1CC(O)C(O)CO1[>][<]}{[>][<]O[>][<]}{[>][<]*C[>][]},O=C(O)C1OC(C[*])C(O)C(O)C1O(C[*]).CC(=O)O,[O][=C][Branch1_1][C][O][C][O][C][Branch1_1][C][C][C][Branch1_1][C][O][C][Branch1_1][C][O][C][Ring1][Branch2_2][O][Branch1_1][C][C].[O][=C][Branch1_1][C][O][C][O][C][Branch1_1][C][C][C][Branch1_1][C][O][C][Branch1_1][C][O][C][Ring1][Branch2_2][O][Branch1_1][C][C].[C][C][Branch1_2][C][=O][O],{[][<]*C[>][<]}{[>][<]O=C(O)C1CC(O)C(O)CO1[>][<]}{[>][<]O[>][<]}{[>][<]*C[>][]}.CC(=O)O
528,alginate,37.37,50.0,acetic_acid,21.4,10.0,60,13.3,0.222,10.0,O=C(O)C1OC(C[*])C(O)C(O)C1O(C[*]),CC(=O)O,"[1, 0, 10, 3, 7, 0, 0, 0, 0, 0, 4, 0, 0, 0, 0]",[O][=C][Branch1_1][C][O][C][O][C][Branch1_1][C][C][C][Branch1_1][C][O][C][Branch1_1][C][O][C][Ring1][Branch2_2][O][Branch1_1][C][C].[O][=C][Branch1_1][C][O][C][O][C][Branch1_1][C][C][C][Branch1_1][C][O][C][Branch1_1][C][O][C][Ring1][Branch2_2][O][Branch1_1][C][C],[C][C][Branch1_2][C][=O][O],{[][<]*C[>][<]}{[>][<]O=C(O)C1CC(O)C(O)CO1[>][<]}{[>][<]O[>][<]}{[>][<]*C[>][]},O=C(O)C1OC(C[*])C(O)C(O)C1O(C[*]).CC(=O)O,[O][=C][Branch1_1][C][O][C][O][C][Branch1_1][C][C][C][Branch1_1][C][O][C][Branch1_1][C][O][C][Ring1][Branch2_2][O][Branch1_1][C][C].[O][=C][Branch1_1][C][O][C][O][C][Branch1_1][C][C][C][Branch1_1][C][O][C][Branch1_1][C][O][C][Ring1][Branch2_2][O][Branch1_1][C][C].[C][C][Branch1_2][C][=O][O],{[][<]*C[>][<]}{[>][<]O=C(O)C1CC(O)C(O)CO1[>][<]}{[>][<]O[>][<]}{[>][<]*C[>][]}.CC(=O)O
529,alginate,37.37,50.0,acetic_acid,21.4,40.0,30,13.3,0.234,6.0,O=C(O)C1OC(C[*])C(O)C(O)C1O(C[*]),CC(=O)O,"[1, 0, 10, 3, 7, 0, 0, 0, 0, 0, 4, 0, 0, 0, 0]",[O][=C][Branch1_1][C][O][C][O][C][Branch1_1][C][C][C][Branch1_1][C][O][C][Branch1_1][C][O][C][Ring1][Branch2_2][O][Branch1_1][C][C].[O][=C][Branch1_1][C][O][C][O][C][Branch1_1][C][C][C][Branch1_1][C][O][C][Branch1_1][C][O][C][Ring1][Branch2_2][O][Branch1_1][C][C],[C][C][Branch1_2][C][=O][O],{[][<]*C[>][<]}{[>][<]O=C(O)C1CC(O)C(O)CO1[>][<]}{[>][<]O[>][<]}{[>][<]*C[>][]},O=C(O)C1OC(C[*])C(O)C(O)C1O(C[*]).CC(=O)O,[O][=C][Branch1_1][C][O][C][O][C][Branch1_1][C][C][C][Branch1_1][C][O][C][Branch1_1][C][O][C][Ring1][Branch2_2][O][Branch1_1][C][C].[O][=C][Branch1_1][C][O][C][O][C][Branch1_1][C][C][C][Branch1_1][C][O][C][Branch1_1][C][O][C][Ring1][Branch2_2][O][Branch1_1][C][C].[C][C][Branch1_2][C][=O][O],{[][<]*C[>][<]}{[>][<]O=C(O)C1CC(O)C(O)CO1[>][<]}{[>][<]O[>][<]}{[>][<]*C[>][]}.CC(=O)O
530,alginate,37.37,50.0,acetic_acid,21.4,10.0,70,13.3,0.269,9.0,O=C(O)C1OC(C[*])C(O)C(O)C1O(C[*]),CC(=O)O,"[1, 0, 10, 3, 7, 0, 0, 0, 0, 0, 4, 0, 0, 0, 0]",[O][=C][Branch1_1][C][O][C][O][C][Branch1_1][C][C][C][Branch1_1][C][O][C][Branch1_1][C][O][C][Ring1][Branch2_2][O][Branch1_1][C][C].[O][=C][Branch1_1][C][O][C][O][C][Branch1_1][C][C][C][Branch1_1][C][O][C][Branch1_1][C][O][C][Ring1][Branch2_2][O][Branch1_1][C][C],[C][C][Branch1_2][C][=O][O],{[][<]*C[>][<]}{[>][<]O=C(O)C1CC(O)C(O)CO1[>][<]}{[>][<]O[>][<]}{[>][<]*C[>][]},O=C(O)C1OC(C[*])C(O)C(O)C1O(C[*]).CC(=O)O,[O][=C][Branch1_1][C][O][C][O][C][Branch1_1][C][C][C][Branch1_1][C][O][C][Branch1_1][C][O][C][Ring1][Branch2_2][O][Branch1_1][C][C].[O][=C][Branch1_1][C][O][C][O][C][Branch1_1][C][C][C][Branch1_1][C][O][C][Branch1_1][C][O][C][Ring1][Branch2_2][O][Branch1_1][C][C].[C][C][Branch1_2][C][=O][O],{[][<]*C[>][<]}{[>][<]O=C(O)C1CC(O)C(O)CO1[>][<]}{[>][<]O[>][<]}{[>][<]*C[>][]}.CC(=O)O
531,pva,74.0,35.0,acetic_acid,21.4,80.0,25,0.23,0.95,1.76,C(*)C(*)(O),CC(=O)O,"[1, 1, 1, 1, 2, 0, 0, 0, 0, 0, 0, 0, 0, 0, 0]",[C][Branch1_1][C][C][C][Branch1_1][C][C][Branch1_1][C][O],[C][C][Branch1_2][C][=O][O],{[][<]*C[>][<]}{[>][<]*CO[>][]},C(*)C(*)(O).CC(=O)O,[C][Branch1_1][C][C][C][Branch1_1][C][C][Branch1_1][C][O].[C][C][Branch1_2][C][=O][O],{[][<]*C[>][<]}{[>][<]*CO[>][]}.CC(=O)O
532,pva,74.0,35.0,acetic_acid,21.4,80.0,45,0.23,4.47,1.23,C(*)C(*)(O),CC(=O)O,"[1, 1, 1, 1, 2, 0, 0, 0, 0, 0, 0, 0, 0, 0, 0]",[C][Branch1_1][C][C][C][Branch1_1][C][C][Branch1_1][C][O],[C][C][Branch1_2][C][=O][O],{[][<]*C[>][<]}{[>][<]*CO[>][]},C(*)C(*)(O).CC(=O)O,[C][Branch1_1][C][C][C][Branch1_1][C][C][Branch1_1][C][O].[C][C][Branch1_2][C][=O][O],{[][<]*C[>][<]}{[>][<]*CO[>][]}.CC(=O)O
533,pva,74.0,35.0,acetic_acid,21.4,80.0,50,0.23,5.7,1.05,C(*)C(*)(O),CC(=O)O,"[1, 1, 1, 1, 2, 0, 0, 0, 0, 0, 0, 0, 0, 0, 0]",[C][Branch1_1][C][C][C][Branch1_1][C][C][Branch1_1][C][O],[C][C][Branch1_2][C][=O][O],{[][<]*C[>][<]}{[>][<]*CO[>][]},C(*)C(*)(O).CC(=O)O,[C][Branch1_1][C][C][C][Branch1_1][C][C][Branch1_1][C][O].[C][C][Branch1_2][C][=O][O],{[][<]*C[>][<]}{[>][<]*CO[>][]}.CC(=O)O
534,pva,74.0,50.0,acetic_acid,21.4,80.0,45,1.5,0.7859,17.775229,C(*)C(*)(O),CC(=O)O,"[1, 1, 1, 1, 2, 0, 0, 0, 0, 0, 0, 0, 0, 0, 0]",[C][Branch1_1][C][C][C][Branch1_1][C][C][Branch1_1][C][O],[C][C][Branch1_2][C][=O][O],{[][<]*C[>][<]}{[>][<]*CO[>][]},C(*)C(*)(O).CC(=O)O,[C][Branch1_1][C][C][C][Branch1_1][C][C][Branch1_1][C][O].[C][C][Branch1_2][C][=O][O],{[][<]*C[>][<]}{[>][<]*CO[>][]}.CC(=O)O
535,ppsu,92.2,0.549,acetic_acid,21.4,15.0,50,2.5,0.69,3.3,O=S(=O)(c1ccc([*])cc1)c4ccc(Oc3ccc(c2ccc(O[*])cc2)cc3)cc4,CC(=O)O,"[1, 0, 0, 1, 1, 0, 0, 0, 0, 4, 2, 0, 0, 0, 0]",[O][=S][Branch1_2][C][=O][Branch1_1][N][C][=C][C][=C][Branch1_1][C][C][C][=C][Ring1][Branch1_3][C][=C][C][=C][Branch2_1][Ring1][Branch2_3][O][C][=C][C][=C][Branch1_1][#C][C][=C][C][=C][Branch1_1][Branch1_1][O][Branch1_1][C][C][C][=C][Ring1][Branch2_1][C][=C][Ring1][=C][C][=C][Ring2][Ring1][Branch1_1],[C][C][Branch1_2][C][=O][O],{[][<]*c1ccccc1[>][<]}{[>][<]O=S=O[>][<]}{[>][<]c1ccccc1[>][<]}{[>][<]O[>][<]}{[>][<]c1ccccc1[>][<]}{[>][<]c1ccccc1[>][<]}{[>][<]*O[>][]},O=S(=O)(c1ccc([*])cc1)c4ccc(Oc3ccc(c2ccc(O[*])cc2)cc3)cc4.CC(=O)O,[O][=S][Branch1_2][C][=O][Branch1_1][N][C][=C][C][=C][Branch1_1][C][C][C][=C][Ring1][Branch1_3][C][=C][C][=C][Branch2_1][Ring1][Branch2_3][O][C][=C][C][=C][Branch1_1][#C][C][=C][C][=C][Branch1_1][Branch1_1][O][Branch1_1][C][C][C][=C][Ring1][Branch2_1][C][=C][Ring1][=C][C][=C][Ring2][Ring1][Branch1_1].[C][C][Branch1_2][C][=O][O],{[][<]*c1ccccc1[>][<]}{[>][<]O=S=O[>][<]}{[>][<]c1ccccc1[>][<]}{[>][<]O[>][<]}{[>][<]c1ccccc1[>][<]}{[>][<]c1ccccc1[>][<]}{[>][<]*O[>][]}.CC(=O)O
536,ppsu,92.2,0.549,acetic_acid,21.4,20.0,50,2.5,0.71,3.7,O=S(=O)(c1ccc([*])cc1)c4ccc(Oc3ccc(c2ccc(O[*])cc2)cc3)cc4,CC(=O)O,"[1, 0, 0, 1, 1, 0, 0, 0, 0, 4, 2, 0, 0, 0, 0]",[O][=S][Branch1_2][C][=O][Branch1_1][N][C][=C][C][=C][Branch1_1][C][C][C][=C][Ring1][Branch1_3][C][=C][C][=C][Branch2_1][Ring1][Branch2_3][O][C][=C][C][=C][Branch1_1][#C][C][=C][C][=C][Branch1_1][Branch1_1][O][Branch1_1][C][C][C][=C][Ring1][Branch2_1][C][=C][Ring1][=C][C][=C][Ring2][Ring1][Branch1_1],[C][C][Branch1_2][C][=O][O],{[][<]*c1ccccc1[>][<]}{[>][<]O=S=O[>][<]}{[>][<]c1ccccc1[>][<]}{[>][<]O[>][<]}{[>][<]c1ccccc1[>][<]}{[>][<]c1ccccc1[>][<]}{[>][<]*O[>][]},O=S(=O)(c1ccc([*])cc1)c4ccc(Oc3ccc(c2ccc(O[*])cc2)cc3)cc4.CC(=O)O,[O][=S][Branch1_2][C][=O][Branch1_1][N][C][=C][C][=C][Branch1_1][C][C][C][=C][Ring1][Branch1_3][C][=C][C][=C][Branch2_1][Ring1][Branch2_3][O][C][=C][C][=C][Branch1_1][#C][C][=C][C][=C][Branch1_1][Branch1_1][O][Branch1_1][C][C][C][=C][Ring1][Branch2_1][C][=C][Ring1][=C][C][=C][Ring2][Ring1][Branch1_1].[C][C][Branch1_2][C][=O][O],{[][<]*c1ccccc1[>][<]}{[>][<]O=S=O[>][<]}{[>][<]c1ccccc1[>][<]}{[>][<]O[>][<]}{[>][<]c1ccccc1[>][<]}{[>][<]c1ccccc1[>][<]}{[>][<]*O[>][]}.CC(=O)O
537,ppsu,92.2,0.549,acetic_acid,21.4,10.0,50,2.5,0.8,4.4,O=S(=O)(c1ccc([*])cc1)c4ccc(Oc3ccc(c2ccc(O[*])cc2)cc3)cc4,CC(=O)O,"[1, 0, 0, 1, 1, 0, 0, 0, 0, 4, 2, 0, 0, 0, 0]",[O][=S][Branch1_2][C][=O][Branch1_1][N][C][=C][C][=C][Branch1_1][C][C][C][=C][Ring1][Branch1_3][C][=C][C][=C][Branch2_1][Ring1][Branch2_3][O][C][=C][C][=C][Branch1_1][#C][C][=C][C][=C][Branch1_1][Branch1_1][O][Branch1_1][C][C][C][=C][Ring1][Branch2_1][C][=C][Ring1][=C][C][=C][Ring2][Ring1][Branch1_1],[C][C][Branch1_2][C][=O][O],{[][<]*c1ccccc1[>][<]}{[>][<]O=S=O[>][<]}{[>][<]c1ccccc1[>][<]}{[>][<]O[>][<]}{[>][<]c1ccccc1[>][<]}{[>][<]c1ccccc1[>][<]}{[>][<]*O[>][]},O=S(=O)(c1ccc([*])cc1)c4ccc(Oc3ccc(c2ccc(O[*])cc2)cc3)cc4.CC(=O)O,[O][=S][Branch1_2][C][=O][Branch1_1][N][C][=C][C][=C][Branch1_1][C][C][C][=C][Ring1][Branch1_3][C][=C][C][=C][Branch2_1][Ring1][Branch2_3][O][C][=C][C][=C][Branch1_1][#C][C][=C][C][=C][Branch1_1][Branch1_1][O][Branch1_1][C][C][C][=C][Ring1][Branch2_1][C][=C][Ring1][=C][C][=C][Ring2][Ring1][Branch1_1].[C][C][Branch1_2][C][=O][O],{[][<]*c1ccccc1[>][<]}{[>][<]O=S=O[>][<]}{[>][<]c1ccccc1[>][<]}{[>][<]O[>][<]}{[>][<]c1ccccc1[>][<]}{[>][<]c1ccccc1[>][<]}{[>][<]*O[>][]}.CC(=O)O
538,ppsu,92.2,0.549,acetic_acid,21.4,5.0,50,2.5,1.18,8.9,O=S(=O)(c1ccc([*])cc1)c4ccc(Oc3ccc(c2ccc(O[*])cc2)cc3)cc4,CC(=O)O,"[1, 0, 0, 1, 1, 0, 0, 0, 0, 4, 2, 0, 0, 0, 0]",[O][=S][Branch1_2][C][=O][Branch1_1][N][C][=C][C][=C][Branch1_1][C][C][C][=C][Ring1][Branch1_3][C][=C][C][=C][Branch2_1][Ring1][Branch2_3][O][C][=C][C][=C][Branch1_1][#C][C][=C][C][=C][Branch1_1][Branch1_1][O][Branch1_1][C][C][C][=C][Ring1][Branch2_1][C][=C][Ring1][=C][C][=C][Ring2][Ring1][Branch1_1],[C][C][Branch1_2][C][=O][O],{[][<]*c1ccccc1[>][<]}{[>][<]O=S=O[>][<]}{[>][<]c1ccccc1[>][<]}{[>][<]O[>][<]}{[>][<]c1ccccc1[>][<]}{[>][<]c1ccccc1[>][<]}{[>][<]*O[>][]},O=S(=O)(c1ccc([*])cc1)c4ccc(Oc3ccc(c2ccc(O[*])cc2)cc3)cc4.CC(=O)O,[O][=S][Branch1_2][C][=O][Branch1_1][N][C][=C][C][=C][Branch1_1][C][C][C][=C][Ring1][Branch1_3][C][=C][C][=C][Branch2_1][Ring1][Branch2_3][O][C][=C][C][=C][Branch1_1][#C][C][=C][C][=C][Branch1_1][Branch1_1][O][Branch1_1][C][C][C][=C][Ring1][Branch2_1][C][=C][Ring1][=C][C][=C][Ring2][Ring1][Branch1_1].[C][C][Branch1_2][C][=O][O],{[][<]*c1ccccc1[>][<]}{[>][<]O=S=O[>][<]}{[>][<]c1ccccc1[>][<]}{[>][<]O[>][<]}{[>][<]c1ccccc1[>][<]}{[>][<]c1ccccc1[>][<]}{[>][<]*O[>][]}.CC(=O)O
539,ppsu,92.2,0.308,acetic_acid,21.4,15.0,50,2.5,0.2,6.7,O=S(=O)(c1ccc([*])cc1)c4ccc(Oc3ccc(c2ccc(O[*])cc2)cc3)cc4,CC(=O)O,"[1, 0, 0, 1, 1, 0, 0, 0, 0, 4, 2, 0, 0, 0, 0]",[O][=S][Branch1_2][C][=O][Branch1_1][N][C][=C][C][=C][Branch1_1][C][C][C][=C][Ring1][Branch1_3][C][=C][C][=C][Branch2_1][Ring1][Branch2_3][O][C][=C][C][=C][Branch1_1][#C][C][=C][C][=C][Branch1_1][Branch1_1][O][Branch1_1][C][C][C][=C][Ring1][Branch2_1][C][=C][Ring1][=C][C][=C][Ring2][Ring1][Branch1_1],[C][C][Branch1_2][C][=O][O],{[][<]*c1ccccc1[>][<]}{[>][<]O=S=O[>][<]}{[>][<]c1ccccc1[>][<]}{[>][<]O[>][<]}{[>][<]c1ccccc1[>][<]}{[>][<]c1ccccc1[>][<]}{[>][<]*O[>][]},O=S(=O)(c1ccc([*])cc1)c4ccc(Oc3ccc(c2ccc(O[*])cc2)cc3)cc4.CC(=O)O,[O][=S][Branch1_2][C][=O][Branch1_1][N][C][=C][C][=C][Branch1_1][C][C][C][=C][Ring1][Branch1_3][C][=C][C][=C][Branch2_1][Ring1][Branch2_3][O][C][=C][C][=C][Branch1_1][#C][C][=C][C][=C][Branch1_1][Branch1_1][O][Branch1_1][C][C][C][=C][Ring1][Branch2_1][C][=C][Ring1][=C][C][=C][Ring2][Ring1][Branch1_1].[C][C][Branch1_2][C][=O][O],{[][<]*c1ccccc1[>][<]}{[>][<]O=S=O[>][<]}{[>][<]c1ccccc1[>][<]}{[>][<]O[>][<]}{[>][<]c1ccccc1[>][<]}{[>][<]c1ccccc1[>][<]}{[>][<]*O[>][]}.CC(=O)O
540,ppsu,92.2,0.308,acetic_acid,21.4,10.0,50,2.5,0.21,5.7,O=S(=O)(c1ccc([*])cc1)c4ccc(Oc3ccc(c2ccc(O[*])cc2)cc3)cc4,CC(=O)O,"[1, 0, 0, 1, 1, 0, 0, 0, 0, 4, 2, 0, 0, 0, 0]",[O][=S][Branch1_2][C][=O][Branch1_1][N][C][=C][C][=C][Branch1_1][C][C][C][=C][Ring1][Branch1_3][C][=C][C][=C][Branch2_1][Ring1][Branch2_3][O][C][=C][C][=C][Branch1_1][#C][C][=C][C][=C][Branch1_1][Branch1_1][O][Branch1_1][C][C][C][=C][Ring1][Branch2_1][C][=C][Ring1][=C][C][=C][Ring2][Ring1][Branch1_1],[C][C][Branch1_2][C][=O][O],{[][<]*c1ccccc1[>][<]}{[>][<]O=S=O[>][<]}{[>][<]c1ccccc1[>][<]}{[>][<]O[>][<]}{[>][<]c1ccccc1[>][<]}{[>][<]c1ccccc1[>][<]}{[>][<]*O[>][]},O=S(=O)(c1ccc([*])cc1)c4ccc(Oc3ccc(c2ccc(O[*])cc2)cc3)cc4.CC(=O)O,[O][=S][Branch1_2][C][=O][Branch1_1][N][C][=C][C][=C][Branch1_1][C][C][C][=C][Ring1][Branch1_3][C][=C][C][=C][Branch2_1][Ring1][Branch2_3][O][C][=C][C][=C][Branch1_1][#C][C][=C][C][=C][Branch1_1][Branch1_1][O][Branch1_1][C][C][C][=C][Ring1][Branch2_1][C][=C][Ring1][=C][C][=C][Ring2][Ring1][Branch1_1].[C][C][Branch1_2][C][=O][O],{[][<]*c1ccccc1[>][<]}{[>][<]O=S=O[>][<]}{[>][<]c1ccccc1[>][<]}{[>][<]O[>][<]}{[>][<]c1ccccc1[>][<]}{[>][<]c1ccccc1[>][<]}{[>][<]*O[>][]}.CC(=O)O
541,ppsu,92.2,0.308,acetic_acid,21.4,5.0,50,2.5,0.28,14.9,O=S(=O)(c1ccc([*])cc1)c4ccc(Oc3ccc(c2ccc(O[*])cc2)cc3)cc4,CC(=O)O,"[1, 0, 0, 1, 1, 0, 0, 0, 0, 4, 2, 0, 0, 0, 0]",[O][=S][Branch1_2][C][=O][Branch1_1][N][C][=C][C][=C][Branch1_1][C][C][C][=C][Ring1][Branch1_3][C][=C][C][=C][Branch2_1][Ring1][Branch2_3][O][C][=C][C][=C][Branch1_1][#C][C][=C][C][=C][Branch1_1][Branch1_1][O][Branch1_1][C][C][C][=C][Ring1][Branch2_1][C][=C][Ring1][=C][C][=C][Ring2][Ring1][Branch1_1],[C][C][Branch1_2][C][=O][O],{[][<]*c1ccccc1[>][<]}{[>][<]O=S=O[>][<]}{[>][<]c1ccccc1[>][<]}{[>][<]O[>][<]}{[>][<]c1ccccc1[>][<]}{[>][<]c1ccccc1[>][<]}{[>][<]*O[>][]},O=S(=O)(c1ccc([*])cc1)c4ccc(Oc3ccc(c2ccc(O[*])cc2)cc3)cc4.CC(=O)O,[O][=S][Branch1_2][C][=O][Branch1_1][N][C][=C][C][=C][Branch1_1][C][C][C][=C][Ring1][Branch1_3][C][=C][C][=C][Branch2_1][Ring1][Branch2_3][O][C][=C][C][=C][Branch1_1][#C][C][=C][C][=C][Branch1_1][Branch1_1][O][Branch1_1][C][C][C][=C][Ring1][Branch2_1][C][=C][Ring1][=C][C][=C][Ring2][Ring1][Branch1_1].[C][C][Branch1_2][C][=O][O],{[][<]*c1ccccc1[>][<]}{[>][<]O=S=O[>][<]}{[>][<]c1ccccc1[>][<]}{[>][<]O[>][<]}{[>][<]c1ccccc1[>][<]}{[>][<]c1ccccc1[>][<]}{[>][<]*O[>][]}.CC(=O)O
542,ppsu,92.2,0.308,acetic_acid,21.4,20.0,50,2.5,0.31,5.3,O=S(=O)(c1ccc([*])cc1)c4ccc(Oc3ccc(c2ccc(O[*])cc2)cc3)cc4,CC(=O)O,"[1, 0, 0, 1, 1, 0, 0, 0, 0, 4, 2, 0, 0, 0, 0]",[O][=S][Branch1_2][C][=O][Branch1_1][N][C][=C][C][=C][Branch1_1][C][C][C][=C][Ring1][Branch1_3][C][=C][C][=C][Branch2_1][Ring1][Branch2_3][O][C][=C][C][=C][Branch1_1][#C][C][=C][C][=C][Branch1_1][Branch1_1][O][Branch1_1][C][C][C][=C][Ring1][Branch2_1][C][=C][Ring1][=C][C][=C][Ring2][Ring1][Branch1_1],[C][C][Branch1_2][C][=O][O],{[][<]*c1ccccc1[>][<]}{[>][<]O=S=O[>][<]}{[>][<]c1ccccc1[>][<]}{[>][<]O[>][<]}{[>][<]c1ccccc1[>][<]}{[>][<]c1ccccc1[>][<]}{[>][<]*O[>][]},O=S(=O)(c1ccc([*])cc1)c4ccc(Oc3ccc(c2ccc(O[*])cc2)cc3)cc4.CC(=O)O,[O][=S][Branch1_2][C][=O][Branch1_1][N][C][=C][C][=C][Branch1_1][C][C][C][=C][Ring1][Branch1_3][C][=C][C][=C][Branch2_1][Ring1][Branch2_3][O][C][=C][C][=C][Branch1_1][#C][C][=C][C][=C][Branch1_1][Branch1_1][O][Branch1_1][C][C][C][=C][Ring1][Branch2_1][C][=C][Ring1][=C][C][=C][Ring2][Ring1][Branch1_1].[C][C][Branch1_2][C][=O][O],{[][<]*c1ccccc1[>][<]}{[>][<]O=S=O[>][<]}{[>][<]c1ccccc1[>][<]}{[>][<]O[>][<]}{[>][<]c1ccccc1[>][<]}{[>][<]c1ccccc1[>][<]}{[>][<]*O[>][]}.CC(=O)O
543,ppsu,92.2,0.227,acetic_acid,21.4,10.0,50,2.5,0.25,8.2,O=S(=O)(c1ccc([*])cc1)c4ccc(Oc3ccc(c2ccc(O[*])cc2)cc3)cc4,CC(=O)O,"[1, 0, 0, 1, 1, 0, 0, 0, 0, 4, 2, 0, 0, 0, 0]",[O][=S][Branch1_2][C][=O][Branch1_1][N][C][=C][C][=C][Branch1_1][C][C][C][=C][Ring1][Branch1_3][C][=C][C][=C][Branch2_1][Ring1][Branch2_3][O][C][=C][C][=C][Branch1_1][#C][C][=C][C][=C][Branch1_1][Branch1_1][O][Branch1_1][C][C][C][=C][Ring1][Branch2_1][C][=C][Ring1][=C][C][=C][Ring2][Ring1][Branch1_1],[C][C][Branch1_2][C][=O][O],{[][<]*c1ccccc1[>][<]}{[>][<]O=S=O[>][<]}{[>][<]c1ccccc1[>][<]}{[>][<]O[>][<]}{[>][<]c1ccccc1[>][<]}{[>][<]c1ccccc1[>][<]}{[>][<]*O[>][]},O=S(=O)(c1ccc([*])cc1)c4ccc(Oc3ccc(c2ccc(O[*])cc2)cc3)cc4.CC(=O)O,[O][=S][Branch1_2][C][=O][Branch1_1][N][C][=C][C][=C][Branch1_1][C][C][C][=C][Ring1][Branch1_3][C][=C][C][=C][Branch2_1][Ring1][Branch2_3][O][C][=C][C][=C][Branch1_1][#C][C][=C][C][=C][Branch1_1][Branch1_1][O][Branch1_1][C][C][C][=C][Ring1][Branch2_1][C][=C][Ring1][=C][C][=C][Ring2][Ring1][Branch1_1].[C][C][Branch1_2][C][=O][O],{[][<]*c1ccccc1[>][<]}{[>][<]O=S=O[>][<]}{[>][<]c1ccccc1[>][<]}{[>][<]O[>][<]}{[>][<]c1ccccc1[>][<]}{[>][<]c1ccccc1[>][<]}{[>][<]*O[>][]}.CC(=O)O
544,ppsu,92.2,0.227,acetic_acid,21.4,15.0,50,2.5,0.28,6.9,O=S(=O)(c1ccc([*])cc1)c4ccc(Oc3ccc(c2ccc(O[*])cc2)cc3)cc4,CC(=O)O,"[1, 0, 0, 1, 1, 0, 0, 0, 0, 4, 2, 0, 0, 0, 0]",[O][=S][Branch1_2][C][=O][Branch1_1][N][C][=C][C][=C][Branch1_1][C][C][C][=C][Ring1][Branch1_3][C][=C][C][=C][Branch2_1][Ring1][Branch2_3][O][C][=C][C][=C][Branch1_1][#C][C][=C][C][=C][Branch1_1][Branch1_1][O][Branch1_1][C][C][C][=C][Ring1][Branch2_1][C][=C][Ring1][=C][C][=C][Ring2][Ring1][Branch1_1],[C][C][Branch1_2][C][=O][O],{[][<]*c1ccccc1[>][<]}{[>][<]O=S=O[>][<]}{[>][<]c1ccccc1[>][<]}{[>][<]O[>][<]}{[>][<]c1ccccc1[>][<]}{[>][<]c1ccccc1[>][<]}{[>][<]*O[>][]},O=S(=O)(c1ccc([*])cc1)c4ccc(Oc3ccc(c2ccc(O[*])cc2)cc3)cc4.CC(=O)O,[O][=S][Branch1_2][C][=O][Branch1_1][N][C][=C][C][=C][Branch1_1][C][C][C][=C][Ring1][Branch1_3][C][=C][C][=C][Branch2_1][Ring1][Branch2_3][O][C][=C][C][=C][Branch1_1][#C][C][=C][C][=C][Branch1_1][Branch1_1][O][Branch1_1][C][C][C][=C][Ring1][Branch2_1][C][=C][Ring1][=C][C][=C][Ring2][Ring1][Branch1_1].[C][C][Branch1_2][C][=O][O],{[][<]*c1ccccc1[>][<]}{[>][<]O=S=O[>][<]}{[>][<]c1ccccc1[>][<]}{[>][<]O[>][<]}{[>][<]c1ccccc1[>][<]}{[>][<]c1ccccc1[>][<]}{[>][<]*O[>][]}.CC(=O)O
546,ppsu,92.2,0.227,acetic_acid,21.4,20.0,50,2.5,0.37,6.6,O=S(=O)(c1ccc([*])cc1)c4ccc(Oc3ccc(c2ccc(O[*])cc2)cc3)cc4,CC(=O)O,"[1, 0, 0, 1, 1, 0, 0, 0, 0, 4, 2, 0, 0, 0, 0]",[O][=S][Branch1_2][C][=O][Branch1_1][N][C][=C][C][=C][Branch1_1][C][C][C][=C][Ring1][Branch1_3][C][=C][C][=C][Branch2_1][Ring1][Branch2_3][O][C][=C][C][=C][Branch1_1][#C][C][=C][C][=C][Branch1_1][Branch1_1][O][Branch1_1][C][C][C][=C][Ring1][Branch2_1][C][=C][Ring1][=C][C][=C][Ring2][Ring1][Branch1_1],[C][C][Branch1_2][C][=O][O],{[][<]*c1ccccc1[>][<]}{[>][<]O=S=O[>][<]}{[>][<]c1ccccc1[>][<]}{[>][<]O[>][<]}{[>][<]c1ccccc1[>][<]}{[>][<]c1ccccc1[>][<]}{[>][<]*O[>][]},O=S(=O)(c1ccc([*])cc1)c4ccc(Oc3ccc(c2ccc(O[*])cc2)cc3)cc4.CC(=O)O,[O][=S][Branch1_2][C][=O][Branch1_1][N][C][=C][C][=C][Branch1_1][C][C][C][=C][Ring1][Branch1_3][C][=C][C][=C][Branch2_1][Ring1][Branch2_3][O][C][=C][C][=C][Branch1_1][#C][C][=C][C][=C][Branch1_1][Branch1_1][O][Branch1_1][C][C][C][=C][Ring1][Branch2_1][C][=C][Ring1][=C][C][=C][Ring2][Ring1][Branch1_1].[C][C][Branch1_2][C][=O][O],{[][<]*c1ccccc1[>][<]}{[>][<]O=S=O[>][<]}{[>][<]c1ccccc1[>][<]}{[>][<]O[>][<]}{[>][<]c1ccccc1[>][<]}{[>][<]c1ccccc1[>][<]}{[>][<]*O[>][]}.CC(=O)O