Index,Polymer,Contact_angle,Thickness_um,Solvent,Solvent_solubility_parameter_Mpa_sqrt,xw_wt_percent,Temp_C,Permeate_pressure_mbar,J_Total_flux_kg_m_2h_1,a_Separation_factor_wo,Polymer_SMILES,Solvent_SMILES,Sum_of_frags,Polymer_SELFIES,Solvent_SELFIES,Polymer_BigSMILES,PS_SMILES,PS_SELFIES,PS_BigSMILES
285,peba,89.0,3.5,n-butanol,23.1,99.0,50,3.0,3.0,0.046667,O=C(C(=O)OOC(=O)CCCCCCCCCCCN(CCCCO[*]))[*],CCCCO,"[2, 17, 0, 3, 1, 0, 0, 1, 0, 0, 3, 0, 0, 0, 0]",[C][Branch1_1][C][C][=O].[C][O][C][Branch1_1][C][C][=O].[C][O][C].[C][N][C][C][C][C][C][C][C][C][C][C][C][C][Branch1_1][C][C][=O].[C][C][C][C][C][O][C],[C][C][C][C][O],{[][<]*O[>][<]}{[>][<]C[>][<]}{[>][<]C[>][<]}{[>][<]C[>][<]}{[>][<]C[>][<]}{[>][<]N[>][<]}{[>][<]C[>][<]}{[>][<]C[>][<]}{[>][<]C[>][<]}{[>][<]C[>][<]}{[>][<]C[>][<]}{[>][<]C[>][<]}{[>][<]C[>][<]}{[>][<]C[>][<]}{[>][<]C[>][<]}{[>][<]C[>][<]}{[>][<]C[>][<]}{[>][<]C=O[>][<]}{[>][<]O[>][<]}{[>][<]O[>][<]}{[>][<]C=O[>][<]}{[>][<]*C=O[>][]},O=C(C(=O)OOC(=O)CCCCCCCCCCCN(CCCCO[*]))[*].CCCCO,[C][Branch1_1][C][C][=O].[C][O][C][Branch1_1][C][C][=O].[C][O][C].[C][N][C][C][C][C][C][C][C][C][C][C][C][C][Branch1_1][C][C][=O].[C][C][C][C][C][O][C].[C][C][C][C][O],{[][<]*O[>][<]}{[>][<]C[>][<]}{[>][<]C[>][<]}{[>][<]C[>][<]}{[>][<]C[>][<]}{[>][<]N[>][<]}{[>][<]C[>][<]}{[>][<]C[>][<]}{[>][<]C[>][<]}{[>][<]C[>][<]}{[>][<]C[>][<]}{[>][<]C[>][<]}{[>][<]C[>][<]}{[>][<]C[>][<]}{[>][<]C[>][<]}{[>][<]C[>][<]}{[>][<]C[>][<]}{[>][<]C=O[>][<]}{[>][<]O[>][<]}{[>][<]O[>][<]}{[>][<]C=O[>][<]}{[>][<]*C=O[>][]}.CCCCO
309,pdms,108.08219,6.0,n-butanol,23.1,99.0,40,2.1,0.927361564,0.0283,*O[Si](*)(C)C,CCCCO,"[3, 3, 0, 0, 1, 0, 0, 0, 0, 0, 1, 0, 0, 1, 0]",[Siexpl][Branch1_1][C][C][Branch1_1][C][C][Branch1_1][C][C][O][Branch1_1][C][C],[C][C][C][C][O],{[][<]*O[>][<]}{[>][<]*[Si](C)C[>][]},*O[Si](*)(C)C.CCCCO,[Siexpl][Branch1_1][C][C][Branch1_1][C][C][Branch1_1][C][C][O][Branch1_1][C][C].[C][C][C][C][O],{[][<]*O[>][<]}{[>][<]*[Si](C)C[>][]}.CCCCO
315,pdms,108.08219,11.0661469,n-butanol,23.1,99.0,40,4.0,0.632996811,0.018719,*O[Si](*)(C)C,CCCCO,"[3, 3, 0, 0, 1, 0, 0, 0, 0, 0, 1, 0, 0, 1, 0]",[Siexpl][Branch1_1][C][C][Branch1_1][C][C][Branch1_1][C][C][O][Branch1_1][C][C],[C][C][C][C][O],{[][<]*O[>][<]}{[>][<]*[Si](C)C[>][]},*O[Si](*)(C)C.CCCCO,[Siexpl][Branch1_1][C][C][Branch1_1][C][C][Branch1_1][C][C][O][Branch1_1][C][C].[C][C][C][C][O],{[][<]*O[>][<]}{[>][<]*[Si](C)C[>][]}.CCCCO
320,pdms,108.08219,4.405094191,n-butanol,23.1,99.08,40,4.0,0.744444444,0.023971,*O[Si](*)(C)C,CCCCO,"[3, 3, 0, 0, 1, 0, 0, 0, 0, 0, 1, 0, 0, 1, 0]",[Siexpl][Branch1_1][C][C][Branch1_1][C][C][Branch1_1][C][C][O][Branch1_1][C][C],[C][C][C][C][O],{[][<]*O[>][<]}{[>][<]*[Si](C)C[>][]},*O[Si](*)(C)C.CCCCO,[Siexpl][Branch1_1][C][C][Branch1_1][C][C][Branch1_1][C][C][O][Branch1_1][C][C].[C][C][C][C][O],{[][<]*O[>][<]}{[>][<]*[Si](C)C[>][]}.CCCCO
321,pdms,108.08219,4.405094191,n-butanol,23.1,99.0,40,4.0,0.769430052,0.023827,*O[Si](*)(C)C,CCCCO,"[3, 3, 0, 0, 1, 0, 0, 0, 0, 0, 1, 0, 0, 1, 0]",[Siexpl][Branch1_1][C][C][Branch1_1][C][C][Branch1_1][C][C][O][Branch1_1][C][C],[C][C][C][C][O],{[][<]*O[>][<]}{[>][<]*[Si](C)C[>][]},*O[Si](*)(C)C.CCCCO,[Siexpl][Branch1_1][C][C][Branch1_1][C][C][Branch1_1][C][C][O][Branch1_1][C][C].[C][C][C][C][O],{[][<]*O[>][<]}{[>][<]*[Si](C)C[>][]}.CCCCO
323,pdms,108.08219,4.405094191,n-butanol,23.1,97.88,40,4.0,0.977777778,0.022551,*O[Si](*)(C)C,CCCCO,"[3, 3, 0, 0, 1, 0, 0, 0, 0, 0, 1, 0, 0, 1, 0]",[Siexpl][Branch1_1][C][C][Branch1_1][C][C][Branch1_1][C][C][O][Branch1_1][C][C],[C][C][C][C][O],{[][<]*O[>][<]}{[>][<]*[Si](C)C[>][]},*O[Si](*)(C)C.CCCCO,[Siexpl][Branch1_1][C][C][Branch1_1][C][C][Branch1_1][C][C][O][Branch1_1][C][C].[C][C][C][C][O],{[][<]*O[>][<]}{[>][<]*[Si](C)C[>][]}.CCCCO
340,pva,74.0,3.0,methanol,29.6,20.0,70,3.0,0.332481466,20.289855,C(*)C(*)(O),CO,"[1, 1, 1, 0, 2, 0, 0, 0, 0, 0, 0, 0, 0, 0, 0]",[C][Branch1_1][C][C][C][Branch1_1][C][C][Branch1_1][C][O],[C][O],{[][<]*C[>][<]}{[>][<]*CO[>][]},C(*)C(*)(O).CO,[C][Branch1_1][C][C][C][Branch1_1][C][C][Branch1_1][C][O].[C][O],{[][<]*C[>][<]}{[>][<]*CO[>][]}.CO
343,pva,74.0,3.0,methanol,29.6,3.0,60,3.0,0.43333507,882.608696,C(*)C(*)(O),CO,"[1, 1, 1, 0, 2, 0, 0, 0, 0, 0, 0, 0, 0, 0, 0]",[C][Branch1_1][C][C][C][Branch1_1][C][C][Branch1_1][C][O],[C][O],{[][<]*C[>][<]}{[>][<]*CO[>][]},C(*)C(*)(O).CO,[C][Branch1_1][C][C][C][Branch1_1][C][C][Branch1_1][C][O].[C][O],{[][<]*C[>][<]}{[>][<]*CO[>][]}.CO
347,pva,74.0,3.0,methanol,29.6,1.0,70,3.0,0.580966706,1318.84058,C(*)C(*)(O),CO,"[1, 1, 1, 0, 2, 0, 0, 0, 0, 0, 0, 0, 0, 0, 0]",[C][Branch1_1][C][C][C][Branch1_1][C][C][Branch1_1][C][O],[C][O],{[][<]*C[>][<]}{[>][<]*CO[>][]},C(*)C(*)(O).CO,[C][Branch1_1][C][C][C][Branch1_1][C][C][Branch1_1][C][O].[C][O],{[][<]*C[>][<]}{[>][<]*CO[>][]}.CO
349,pva,74.0,3.0,methanol,29.6,10.0,70,3.0,0.663587992,111.594203,C(*)C(*)(O),CO,"[1, 1, 1, 0, 2, 0, 0, 0, 0, 0, 0, 0, 0, 0, 0]",[C][Branch1_1][C][C][C][Branch1_1][C][C][Branch1_1][C][O],[C][O],{[][<]*C[>][<]}{[>][<]*CO[>][]},C(*)C(*)(O).CO,[C][Branch1_1][C][C][C][Branch1_1][C][C][Branch1_1][C][O].[C][O],{[][<]*C[>][<]}{[>][<]*CO[>][]}.CO
350,pdms,108.08219,25.0,ipa,23.5,99.0,30,1.0,0.212258065,0.055319,*O[Si](*)(C)C,CC(C)O,"[4, 0, 1, 0, 1, 0, 0, 0, 0, 0, 1, 0, 0, 1, 0]",[Siexpl][Branch1_1][C][C][Branch1_1][C][C][Branch1_1][C][C][O][Branch1_1][C][C],[C][C][Branch1_1][C][C][O],{[][<]*O[>][<]}{[>][<]*[Si](C)C[>][]},*O[Si](*)(C)C.CC(C)O,[Siexpl][Branch1_1][C][C][Branch1_1][C][C][Branch1_1][C][C][O][Branch1_1][C][C].[C][C][Branch1_1][C][C][O],{[][<]*O[>][<]}{[>][<]*[Si](C)C[>][]}.CC(C)O
352,pdms,108.08219,25.0,ipa,23.5,96.0,30,1.0,0.307096774,0.076471,*O[Si](*)(C)C,CC(C)O,"[4, 0, 1, 0, 1, 0, 0, 0, 0, 0, 1, 0, 0, 1, 0]",[Siexpl][Branch1_1][C][C][Branch1_1][C][C][Branch1_1][C][C][O][Branch1_1][C][C],[C][C][Branch1_1][C][C][O],{[][<]*O[>][<]}{[>][<]*[Si](C)C[>][]},*O[Si](*)(C)C.CC(C)O,[Siexpl][Branch1_1][C][C][Branch1_1][C][C][Branch1_1][C][C][O][Branch1_1][C][C].[C][C][Branch1_1][C][C][O],{[][<]*O[>][<]}{[>][<]*[Si](C)C[>][]}.CC(C)O
366,pdms,108.08219,1.5,methanol,29.6,95.0,40,10.0,1.140571429,0.1432,*O[Si](*)(C)C,CO,"[3, 0, 0, 0, 1, 0, 0, 0, 0, 0, 1, 0, 0, 1, 0]",[Siexpl][Branch1_1][C][C][Branch1_1][C][C][Branch1_1][C][C][O][Branch1_1][C][C],[C][O],{[][<]*O[>][<]}{[>][<]*[Si](C)C[>][]},*O[Si](*)(C)C.CO,[Siexpl][Branch1_1][C][C][Branch1_1][C][C][Branch1_1][C][C][O][Branch1_1][C][C].[C][O],{[][<]*O[>][<]}{[>][<]*[Si](C)C[>][]}.CO
370,pdms,108.08219,1.5,ethanol,26.5,95.0,45,10.0,1.387428571,0.108485,*O[Si](*)(C)C,CCO,"[3, 1, 0, 0, 1, 0, 0, 0, 0, 0, 1, 0, 0, 1, 0]",[Siexpl][Branch1_1][C][C][Branch1_1][C][C][Branch1_1][C][C][O][Branch1_1][C][C],[C][C][O],{[][<]*O[>][<]}{[>][<]*[Si](C)C[>][]},*O[Si](*)(C)C.CCO,[Siexpl][Branch1_1][C][C][Branch1_1][C][C][Branch1_1][C][C][O][Branch1_1][C][C].[C][C][O],{[][<]*O[>][<]}{[>][<]*[Si](C)C[>][]}.CCO
378,pdms,108.08219,8.0,methanol,29.6,99.7,35,9.0,0.54973822,0.135484,*O[Si](*)(C)C,CO,"[3, 0, 0, 0, 1, 0, 0, 0, 0, 0, 1, 0, 0, 1, 0]",[Siexpl][Branch1_1][C][C][Branch1_1][C][C][Branch1_1][C][C][O][Branch1_1][C][C],[C][O],{[][<]*O[>][<]}{[>][<]*[Si](C)C[>][]},*O[Si](*)(C)C.CO,[Siexpl][Branch1_1][C][C][Branch1_1][C][C][Branch1_1][C][C][O][Branch1_1][C][C].[C][O],{[][<]*O[>][<]}{[>][<]*[Si](C)C[>][]}.CO
397,chitosan,55.1,26.2,methanol,29.6,9.0,25,2.5,0.210280374,3.449761,NC2C(O)C(OC1OC(CO)C(O(C[*]))C(O)C1N)C(CO)OC2(C[*]),CO,"[1, 2, 10, 0, 5, 0, 2, 0, 0, 0, 4, 0, 0, 0, 0]",[N][C][C][Branch1_1][C][O][C][Branch2_1][Ring1][Branch2_1][O][C][O][C][Branch1_1][Ring1][C][O][C][Branch1_1][Branch1_1][O][Branch1_1][C][C][C][Branch1_1][C][O][C][Ring1][O][N][C][Branch1_1][Ring1][C][O][O][C][Ring2][Ring1][Branch1_2][Branch1_1][C][C],[C][O],{[][<]*C[>][<]}{[>][<]O[>][<]}{[>][<]NC1COC(CO)CC1O[>][<]}{[>][<]O[>][<]}{[>][<]NC1COC(CO)CC1O[>][<]}{[>][<]*C[>][]},NC2C(O)C(OC1OC(CO)C(O(C[*]))C(O)C1N)C(CO)OC2(C[*]).CO,[N][C][C][Branch1_1][C][O][C][Branch2_1][Ring1][Branch2_1][O][C][O][C][Branch1_1][Ring1][C][O][C][Branch1_1][Branch1_1][O][Branch1_1][C][C][C][Branch1_1][C][O][C][Ring1][O][N][C][Branch1_1][Ring1][C][O][O][C][Ring2][Ring1][Branch1_2][Branch1_1][C][C].[C][O],{[][<]*C[>][<]}{[>][<]O[>][<]}{[>][<]NC1COC(CO)CC1O[>][<]}{[>][<]O[>][<]}{[>][<]NC1COC(CO)CC1O[>][<]}{[>][<]*C[>][]}.CO
399,chitosan,55.1,26.2,methanol,29.6,5.0,35,2.5,0.269158879,3.583732,NC2C(O)C(OC1OC(CO)C(O(C[*]))C(O)C1N)C(CO)OC2(C[*]),CO,"[1, 2, 10, 0, 5, 0, 2, 0, 0, 0, 4, 0, 0, 0, 0]",[N][C][C][Branch1_1][C][O][C][Branch2_1][Ring1][Branch2_1][O][C][O][C][Branch1_1][Ring1][C][O][C][Branch1_1][Branch1_1][O][Branch1_1][C][C][C][Branch1_1][C][O][C][Ring1][O][N][C][Branch1_1][Ring1][C][O][O][C][Ring2][Ring1][Branch1_2][Branch1_1][C][C],[C][O],{[][<]*C[>][<]}{[>][<]O[>][<]}{[>][<]NC1COC(CO)CC1O[>][<]}{[>][<]O[>][<]}{[>][<]NC1COC(CO)CC1O[>][<]}{[>][<]*C[>][]},NC2C(O)C(OC1OC(CO)C(O(C[*]))C(O)C1N)C(CO)OC2(C[*]).CO,[N][C][C][Branch1_1][C][O][C][Branch2_1][Ring1][Branch2_1][O][C][O][C][Branch1_1][Ring1][C][O][C][Branch1_1][Branch1_1][O][Branch1_1][C][C][C][Branch1_1][C][O][C][Ring1][O][N][C][Branch1_1][Ring1][C][O][O][C][Ring2][Ring1][Branch1_2][Branch1_1][C][C].[C][O],{[][<]*C[>][<]}{[>][<]O[>][<]}{[>][<]NC1COC(CO)CC1O[>][<]}{[>][<]O[>][<]}{[>][<]NC1COC(CO)CC1O[>][<]}{[>][<]*C[>][]}.CO
409,chitosan,55.1,26.2,methanol,29.6,26.8,35,2.5,0.538317757,4.38756,NC2C(O)C(OC1OC(CO)C(O(C[*]))C(O)C1N)C(CO)OC2(C[*]),CO,"[1, 2, 10, 0, 5, 0, 2, 0, 0, 0, 4, 0, 0, 0, 0]",[N][C][C][Branch1_1][C][O][C][Branch2_1][Ring1][Branch2_1][O][C][O][C][Branch1_1][Ring1][C][O][C][Branch1_1][Branch1_1][O][Branch1_1][C][C][C][Branch1_1][C][O][C][Ring1][O][N][C][Branch1_1][Ring1][C][O][O][C][Ring2][Ring1][Branch1_2][Branch1_1][C][C],[C][O],{[][<]*C[>][<]}{[>][<]O[>][<]}{[>][<]NC1COC(CO)CC1O[>][<]}{[>][<]O[>][<]}{[>][<]NC1COC(CO)CC1O[>][<]}{[>][<]*C[>][]},NC2C(O)C(OC1OC(CO)C(O(C[*]))C(O)C1N)C(CO)OC2(C[*]).CO,[N][C][C][Branch1_1][C][O][C][Branch2_1][Ring1][Branch2_1][O][C][O][C][Branch1_1][Ring1][C][O][C][Branch1_1][Branch1_1][O][Branch1_1][C][C][C][Branch1_1][C][O][C][Ring1][O][N][C][Branch1_1][Ring1][C][O][O][C][Ring2][Ring1][Branch1_2][Branch1_1][C][C].[C][O],{[][<]*C[>][<]}{[>][<]O[>][<]}{[>][<]NC1COC(CO)CC1O[>][<]}{[>][<]O[>][<]}{[>][<]NC1COC(CO)CC1O[>][<]}{[>][<]*C[>][]}.CO
412,chitosan,55.1,26.2,methanol,29.6,16.1,55,2.5,0.622429907,5.894737,NC2C(O)C(OC1OC(CO)C(O(C[*]))C(O)C1N)C(CO)OC2(C[*]),CO,"[1, 2, 10, 0, 5, 0, 2, 0, 0, 0, 4, 0, 0, 0, 0]",[N][C][C][Branch1_1][C][O][C][Branch2_1][Ring1][Branch2_1][O][C][O][C][Branch1_1][Ring1][C][O][C][Branch1_1][Branch1_1][O][Branch1_1][C][C][C][Branch1_1][C][O][C][Ring1][O][N][C][Branch1_1][Ring1][C][O][O][C][Ring2][Ring1][Branch1_2][Branch1_1][C][C],[C][O],{[][<]*C[>][<]}{[>][<]O[>][<]}{[>][<]NC1COC(CO)CC1O[>][<]}{[>][<]O[>][<]}{[>][<]NC1COC(CO)CC1O[>][<]}{[>][<]*C[>][]},NC2C(O)C(OC1OC(CO)C(O(C[*]))C(O)C1N)C(CO)OC2(C[*]).CO,[N][C][C][Branch1_1][C][O][C][Branch2_1][Ring1][Branch2_1][O][C][O][C][Branch1_1][Ring1][C][O][C][Branch1_1][Branch1_1][O][Branch1_1][C][C][C][Branch1_1][C][O][C][Ring1][O][N][C][Branch1_1][Ring1][C][O][O][C][Ring2][Ring1][Branch1_2][Branch1_1][C][C].[C][O],{[][<]*C[>][<]}{[>][<]O[>][<]}{[>][<]NC1COC(CO)CC1O[>][<]}{[>][<]O[>][<]}{[>][<]NC1COC(CO)CC1O[>][<]}{[>][<]*C[>][]}.CO
413,chitosan,55.1,26.2,methanol,29.6,26.8,45,2.5,0.668691589,4.856459,NC2C(O)C(OC1OC(CO)C(O(C[*]))C(O)C1N)C(CO)OC2(C[*]),CO,"[1, 2, 10, 0, 5, 0, 2, 0, 0, 0, 4, 0, 0, 0, 0]",[N][C][C][Branch1_1][C][O][C][Branch2_1][Ring1][Branch2_1][O][C][O][C][Branch1_1][Ring1][C][O][C][Branch1_1][Branch1_1][O][Branch1_1][C][C][C][Branch1_1][C][O][C][Ring1][O][N][C][Branch1_1][Ring1][C][O][O][C][Ring2][Ring1][Branch1_2][Branch1_1][C][C],[C][O],{[][<]*C[>][<]}{[>][<]O[>][<]}{[>][<]NC1COC(CO)CC1O[>][<]}{[>][<]O[>][<]}{[>][<]NC1COC(CO)CC1O[>][<]}{[>][<]*C[>][]},NC2C(O)C(OC1OC(CO)C(O(C[*]))C(O)C1N)C(CO)OC2(C[*]).CO,[N][C][C][Branch1_1][C][O][C][Branch2_1][Ring1][Branch2_1][O][C][O][C][Branch1_1][Ring1][C][O][C][Branch1_1][Branch1_1][O][Branch1_1][C][C][C][Branch1_1][C][O][C][Ring1][O][N][C][Branch1_1][Ring1][C][O][O][C][Ring2][Ring1][Branch1_2][Branch1_1][C][C].[C][O],{[][<]*C[>][<]}{[>][<]O[>][<]}{[>][<]NC1COC(CO)CC1O[>][<]}{[>][<]O[>][<]}{[>][<]NC1COC(CO)CC1O[>][<]}{[>][<]*C[>][]}.CO
417,chitosan,55.1,28.4,methanol,29.6,1.99,45,2.5,0.429482072,3.276708,NC2C(O)C(OC1OC(CO)C(O(C[*]))C(O)C1N)C(CO)OC2(C[*]),CO,"[1, 2, 10, 0, 5, 0, 2, 0, 0, 0, 4, 0, 0, 0, 0]",[N][C][C][Branch1_1][C][O][C][Branch2_1][Ring1][Branch2_1][O][C][O][C][Branch1_1][Ring1][C][O][C][Branch1_1][Branch1_1][O][Branch1_1][C][C][C][Branch1_1][C][O][C][Ring1][O][N][C][Branch1_1][Ring1][C][O][O][C][Ring2][Ring1][Branch1_2][Branch1_1][C][C],[C][O],{[][<]*C[>][<]}{[>][<]O[>][<]}{[>][<]NC1COC(CO)CC1O[>][<]}{[>][<]O[>][<]}{[>][<]NC1COC(CO)CC1O[>][<]}{[>][<]*C[>][]},NC2C(O)C(OC1OC(CO)C(O(C[*]))C(O)C1N)C(CO)OC2(C[*]).CO,[N][C][C][Branch1_1][C][O][C][Branch2_1][Ring1][Branch2_1][O][C][O][C][Branch1_1][Ring1][C][O][C][Branch1_1][Branch1_1][O][Branch1_1][C][C][C][Branch1_1][C][O][C][Ring1][O][N][C][Branch1_1][Ring1][C][O][O][C][Ring2][Ring1][Branch1_2][Branch1_1][C][C].[C][O],{[][<]*C[>][<]}{[>][<]O[>][<]}{[>][<]NC1COC(CO)CC1O[>][<]}{[>][<]O[>][<]}{[>][<]NC1COC(CO)CC1O[>][<]}{[>][<]*C[>][]}.CO
422,pva,74.0,22.0,ethylene_glycol,32.9,10.0,25,8.0,0.0316,419.354839,C(*)C(*)(O),OCCO,"[0, 3, 1, 0, 3, 0, 0, 0, 0, 0, 0, 0, 0, 0, 0]",[C][Branch1_1][C][C][C][Branch1_1][C][C][Branch1_1][C][O],[O][C][C][O],{[][<]*C[>][<]}{[>][<]*CO[>][]},C(*)C(*)(O).OCCO,[C][Branch1_1][C][C][C][Branch1_1][C][C][Branch1_1][C][O].[O][C][C][O],{[][<]*C[>][<]}{[>][<]*CO[>][]}.OCCO
423,pva,74.0,10.0,ethylene_glycol,32.9,10.0,60,6.7,0.294736842,1687.5,C(*)C(*)(O),OCCO,"[0, 3, 1, 0, 3, 0, 0, 0, 0, 0, 0, 0, 0, 0, 0]",[C][Branch1_1][C][C][C][Branch1_1][C][C][Branch1_1][C][O],[O][C][C][O],{[][<]*C[>][<]}{[>][<]*CO[>][]},C(*)C(*)(O).OCCO,[C][Branch1_1][C][C][C][Branch1_1][C][C][Branch1_1][C][O].[O][C][C][O],{[][<]*C[>][<]}{[>][<]*CO[>][]}.OCCO
425,pva,74.0,10.0,ethylene_glycol,32.9,10.0,75,6.7,1.046511628,604.815864,C(*)C(*)(O),OCCO,"[0, 3, 1, 0, 3, 0, 0, 0, 0, 0, 0, 0, 0, 0, 0]",[C][Branch1_1][C][C][C][Branch1_1][C][C][Branch1_1][C][O],[O][C][C][O],{[][<]*C[>][<]}{[>][<]*CO[>][]},C(*)C(*)(O).OCCO,[C][Branch1_1][C][C][C][Branch1_1][C][C][Branch1_1][C][O].[O][C][C][O],{[][<]*C[>][<]}{[>][<]*CO[>][]}.OCCO
438,pva,74.0,10.0,ethylene_glycol,32.9,20.0,75,6.7,2.652631579,1218.75,C(*)C(*)(O),OCCO,"[0, 3, 1, 0, 3, 0, 0, 0, 0, 0, 0, 0, 0, 0, 0]",[C][Branch1_1][C][C][C][Branch1_1][C][C][Branch1_1][C][O],[O][C][C][O],{[][<]*C[>][<]}{[>][<]*CO[>][]},C(*)C(*)(O).OCCO,[C][Branch1_1][C][C][C][Branch1_1][C][C][Branch1_1][C][O].[O][C][C][O],{[][<]*C[>][<]}{[>][<]*CO[>][]}.OCCO
451,pva,74.0,10.0,ethylene_glycol,32.9,40.0,75,6.7,5.906976744,198.300283,C(*)C(*)(O),OCCO,"[0, 3, 1, 0, 3, 0, 0, 0, 0, 0, 0, 0, 0, 0, 0]",[C][Branch1_1][C][C][C][Branch1_1][C][C][Branch1_1][C][O],[O][C][C][O],{[][<]*C[>][<]}{[>][<]*CO[>][]},C(*)C(*)(O).OCCO,[C][Branch1_1][C][C][C][Branch1_1][C][C][Branch1_1][C][O].[O][C][C][O],{[][<]*C[>][<]}{[>][<]*CO[>][]}.OCCO
461,pva,50.22,15.0,ethylene_glycol,32.9,40.0,70,6.7,0.670212766,2551.401869,C(*)C(*)(O),OCCO,"[0, 3, 1, 0, 3, 0, 0, 0, 0, 0, 0, 0, 0, 0, 0]",[C][Branch1_1][C][C][C][Branch1_1][C][C][Branch1_1][C][O],[O][C][C][O],{[][<]*C[>][<]}{[>][<]*CO[>][]},C(*)C(*)(O).OCCO,[C][Branch1_1][C][C][C][Branch1_1][C][C][Branch1_1][C][O].[O][C][C][O],{[][<]*C[>][<]}{[>][<]*CO[>][]}.OCCO
480,pim-1,87.8,30.0,ethylene_glycol,32.9,18.5,50,10.0,0.230333333,64.47,CC6(C)CC4(CC(C)(C)c3cc2oc1c(C#N)c([*])c([*])c(C#N)c1oc2cc34)c5cc(O[*])c(O[*])cc56,OCCO,"[4, 4, 0, 0, 2, 3, 0, 0, 2, 3, 4, 0, 2, 0, 0]",[C][C][Branch1_1][C][C][C][C][Branch2_1][Ring2][#C][C][C][Branch1_1][C][C][Branch1_1][C][C][C][=C][C][O][C][=C][Branch1_1][Ring1][C][#N][C][Branch1_1][C][C][=C][Branch1_1][C][C][C][Branch1_1][Ring1][C][#N][=C][Ring1][N][O][C][Expl=Ring1][S][C][=C][Ring2][Ring1][Ring2][Ring2][Ring1][Branch2_2][C][=C][C][Branch1_1][Branch1_1][O][Branch1_1][C][C][=C][Branch1_1][Branch1_1][O][Branch1_1][C][C][C][=C][Ring1][Branch2_3][Ring2][Ring2][Branch1_2],[O][C][C][O],Oc1cc2c(cc1O)C1(CC2(C)C)CC(C)(C)c2cc3c(cc21)Oc1c(C#N)c()c()c(C#N)c1O3,CC6(C)CC4(CC(C)(C)c3cc2oc1c(C#N)c([*])c([*])c(C#N)c1oc2cc34)c5cc(O[*])c(O[*])cc56.OCCO,[C][C][Branch1_1][C][C][C][C][Branch2_1][Ring2][#C][C][C][Branch1_1][C][C][Branch1_1][C][C][C][=C][C][O][C][=C][Branch1_1][Ring1][C][#N][C][Branch1_1][C][C][=C][Branch1_1][C][C][C][Branch1_1][Ring1][C][#N][=C][Ring1][N][O][C][Expl=Ring1][S][C][=C][Ring2][Ring1][Ring2][Ring2][Ring1][Branch2_2][C][=C][C][Branch1_1][Branch1_1][O][Branch1_1][C][C][=C][Branch1_1][Branch1_1][O][Branch1_1][C][C][C][=C][Ring1][Branch2_3][Ring2][Ring2][Branch1_2].[O][C][C][O],Oc1cc2c(cc1O)C1(CC2(C)C)CC(C)(C)c2cc3c(cc21)Oc1c(C#N)c()c()c(C#N)c1O3.OCCO
492,chitosan,55.1,50.0,ethylene_glycol,32.9,35.63,30,0.13,0.819,4.18,NC2C(O)C(OC1OC(CO)C(O(C[*]))C(O)C1N)C(CO)OC2(C[*]),OCCO,"[0, 4, 10, 0, 6, 0, 2, 0, 0, 0, 4, 0, 0, 0, 0]",[N][C][C][Branch1_1][C][O][C][Branch2_1][Ring1][Branch2_1][O][C][O][C][Branch1_1][Ring1][C][O][C][Branch1_1][Branch1_1][O][Branch1_1][C][C][C][Branch1_1][C][O][C][Ring1][O][N][C][Branch1_1][Ring1][C][O][O][C][Ring2][Ring1][Branch1_2][Branch1_1][C][C],[O][C][C][O],{[][<]*C[>][<]}{[>][<]O[>][<]}{[>][<]NC1COC(CO)CC1O[>][<]}{[>][<]O[>][<]}{[>][<]NC1COC(CO)CC1O[>][<]}{[>][<]*C[>][]},NC2C(O)C(OC1OC(CO)C(O(C[*]))C(O)C1N)C(CO)OC2(C[*]).OCCO,[N][C][C][Branch1_1][C][O][C][Branch2_1][Ring1][Branch2_1][O][C][O][C][Branch1_1][Ring1][C][O][C][Branch1_1][Branch1_1][O][Branch1_1][C][C][C][Branch1_1][C][O][C][Ring1][O][N][C][Branch1_1][Ring1][C][O][O][C][Ring2][Ring1][Branch1_2][Branch1_1][C][C].[O][C][C][O],{[][<]*C[>][<]}{[>][<]O[>][<]}{[>][<]NC1COC(CO)CC1O[>][<]}{[>][<]O[>][<]}{[>][<]NC1COC(CO)CC1O[>][<]}{[>][<]*C[>][]}.OCCO
493,chitosan,55.1,30.0,ethylene_glycol,32.9,8.0,30,0.33,0.547692308,56.410256,NC2C(O)C(OC1OC(CO)C(O(C[*]))C(O)C1N)C(CO)OC2(C[*]),OCCO,"[0, 4, 10, 0, 6, 0, 2, 0, 0, 0, 4, 0, 0, 0, 0]",[N][C][C][Branch1_1][C][O][C][Branch2_1][Ring1][Branch2_1][O][C][O][C][Branch1_1][Ring1][C][O][C][Branch1_1][Branch1_1][O][Branch1_1][C][C][C][Branch1_1][C][O][C][Ring1][O][N][C][Branch1_1][Ring1][C][O][O][C][Ring2][Ring1][Branch1_2][Branch1_1][C][C],[O][C][C][O],{[][<]*C[>][<]}{[>][<]O[>][<]}{[>][<]NC1COC(CO)CC1O[>][<]}{[>][<]O[>][<]}{[>][<]NC1COC(CO)CC1O[>][<]}{[>][<]*C[>][]},NC2C(O)C(OC1OC(CO)C(O(C[*]))C(O)C1N)C(CO)OC2(C[*]).OCCO,[N][C][C][Branch1_1][C][O][C][Branch2_1][Ring1][Branch2_1][O][C][O][C][Branch1_1][Ring1][C][O][C][Branch1_1][Branch1_1][O][Branch1_1][C][C][C][Branch1_1][C][O][C][Ring1][O][N][C][Branch1_1][Ring1][C][O][O][C][Ring2][Ring1][Branch1_2][Branch1_1][C][C].[O][C][C][O],{[][<]*C[>][<]}{[>][<]O[>][<]}{[>][<]NC1COC(CO)CC1O[>][<]}{[>][<]O[>][<]}{[>][<]NC1COC(CO)CC1O[>][<]}{[>][<]*C[>][]}.OCCO
501,chitosan,55.1,10.0,ethylene_glycol,32.9,5.0,80,6.7,0.156521739,1288.2,NC2C(O)C(OC1OC(CO)C(O(C[*]))C(O)C1N)C(CO)OC2(C[*]),OCCO,"[0, 4, 10, 0, 6, 0, 2, 0, 0, 0, 4, 0, 0, 0, 0]",[N][C][C][Branch1_1][C][O][C][Branch2_1][Ring1][Branch2_1][O][C][O][C][Branch1_1][Ring1][C][O][C][Branch1_1][Branch1_1][O][Branch1_1][C][C][C][Branch1_1][C][O][C][Ring1][O][N][C][Branch1_1][Ring1][C][O][O][C][Ring2][Ring1][Branch1_2][Branch1_1][C][C],[O][C][C][O],{[][<]*C[>][<]}{[>][<]O[>][<]}{[>][<]NC1COC(CO)CC1O[>][<]}{[>][<]O[>][<]}{[>][<]NC1COC(CO)CC1O[>][<]}{[>][<]*C[>][]},NC2C(O)C(OC1OC(CO)C(O(C[*]))C(O)C1N)C(CO)OC2(C[*]).OCCO,[N][C][C][Branch1_1][C][O][C][Branch2_1][Ring1][Branch2_1][O][C][O][C][Branch1_1][Ring1][C][O][C][Branch1_1][Branch1_1][O][Branch1_1][C][C][C][Branch1_1][C][O][C][Ring1][O][N][C][Branch1_1][Ring1][C][O][O][C][Ring2][Ring1][Branch1_2][Branch1_1][C][C].[O][C][C][O],{[][<]*C[>][<]}{[>][<]O[>][<]}{[>][<]NC1COC(CO)CC1O[>][<]}{[>][<]O[>][<]}{[>][<]NC1COC(CO)CC1O[>][<]}{[>][<]*C[>][]}.OCCO