Index,Polymer,Contact_angle,Thickness_um,Solvent,Solvent_solubility_parameter_Mpa_sqrt,xw_wt_percent,Temp_C,Permeate_pressure_mbar,J_Total_flux_kg_m_2h_1,a_Separation_factor_wo,Polymer_SMILES,Solvent_SMILES,Sum_of_frags,Polymer_SELFIES,Solvent_SELFIES,Polymer_BigSMILES,PS_SMILES,PS_SELFIES,PS_BigSMILES
185,chitosan,55.1,40.0,ipa,23.5,5.0,30,13.3,0.032,422.0,NC2C(O)C(OC1OC(CO)C(O(C[*]))C(O)C1N)C(CO)OC2(C[*]),CC(C)O,"[2, 2, 11, 0, 5, 0, 2, 0, 0, 0, 4, 0, 0, 0, 0]",[N][C][C][Branch1_1][C][O][C][Branch2_1][Ring1][Branch2_1][O][C][O][C][Branch1_1][Ring1][C][O][C][Branch1_1][Branch1_1][O][Branch1_1][C][C][C][Branch1_1][C][O][C][Ring1][O][N][C][Branch1_1][Ring1][C][O][O][C][Ring2][Ring1][Branch1_2][Branch1_1][C][C],[C][C][Branch1_1][C][C][O],{[][<]*C[>][<]}{[>][<]O[>][<]}{[>][<]NC1COC(CO)CC1O[>][<]}{[>][<]O[>][<]}{[>][<]NC1COC(CO)CC1O[>][<]}{[>][<]*C[>][]},NC2C(O)C(OC1OC(CO)C(O(C[*]))C(O)C1N)C(CO)OC2(C[*]).CC(C)O,[N][C][C][Branch1_1][C][O][C][Branch2_1][Ring1][Branch2_1][O][C][O][C][Branch1_1][Ring1][C][O][C][Branch1_1][Branch1_1][O][Branch1_1][C][C][C][Branch1_1][C][O][C][Ring1][O][N][C][Branch1_1][Ring1][C][O][O][C][Ring2][Ring1][Branch1_2][Branch1_1][C][C].[C][C][Branch1_1][C][C][O],{[][<]*C[>][<]}{[>][<]O[>][<]}{[>][<]NC1COC(CO)CC1O[>][<]}{[>][<]O[>][<]}{[>][<]NC1COC(CO)CC1O[>][<]}{[>][<]*C[>][]}.CC(C)O
186,chitosan,55.1,40.0,ipa,23.5,10.0,30,13.3,0.0478,171.0,NC2C(O)C(OC1OC(CO)C(O(C[*]))C(O)C1N)C(CO)OC2(C[*]),CC(C)O,"[2, 2, 11, 0, 5, 0, 2, 0, 0, 0, 4, 0, 0, 0, 0]",[N][C][C][Branch1_1][C][O][C][Branch2_1][Ring1][Branch2_1][O][C][O][C][Branch1_1][Ring1][C][O][C][Branch1_1][Branch1_1][O][Branch1_1][C][C][C][Branch1_1][C][O][C][Ring1][O][N][C][Branch1_1][Ring1][C][O][O][C][Ring2][Ring1][Branch1_2][Branch1_1][C][C],[C][C][Branch1_1][C][C][O],{[][<]*C[>][<]}{[>][<]O[>][<]}{[>][<]NC1COC(CO)CC1O[>][<]}{[>][<]O[>][<]}{[>][<]NC1COC(CO)CC1O[>][<]}{[>][<]*C[>][]},NC2C(O)C(OC1OC(CO)C(O(C[*]))C(O)C1N)C(CO)OC2(C[*]).CC(C)O,[N][C][C][Branch1_1][C][O][C][Branch2_1][Ring1][Branch2_1][O][C][O][C][Branch1_1][Ring1][C][O][C][Branch1_1][Branch1_1][O][Branch1_1][C][C][C][Branch1_1][C][O][C][Ring1][O][N][C][Branch1_1][Ring1][C][O][O][C][Ring2][Ring1][Branch1_2][Branch1_1][C][C].[C][C][Branch1_1][C][C][O],{[][<]*C[>][<]}{[>][<]O[>][<]}{[>][<]NC1COC(CO)CC1O[>][<]}{[>][<]O[>][<]}{[>][<]NC1COC(CO)CC1O[>][<]}{[>][<]*C[>][]}.CC(C)O
187,chitosan,55.1,40.0,ipa,23.5,15.0,30,13.3,0.0649,66.115702,NC2C(O)C(OC1OC(CO)C(O(C[*]))C(O)C1N)C(CO)OC2(C[*]),CC(C)O,"[2, 2, 11, 0, 5, 0, 2, 0, 0, 0, 4, 0, 0, 0, 0]",[N][C][C][Branch1_1][C][O][C][Branch2_1][Ring1][Branch2_1][O][C][O][C][Branch1_1][Ring1][C][O][C][Branch1_1][Branch1_1][O][Branch1_1][C][C][C][Branch1_1][C][O][C][Ring1][O][N][C][Branch1_1][Ring1][C][O][O][C][Ring2][Ring1][Branch1_2][Branch1_1][C][C],[C][C][Branch1_1][C][C][O],{[][<]*C[>][<]}{[>][<]O[>][<]}{[>][<]NC1COC(CO)CC1O[>][<]}{[>][<]O[>][<]}{[>][<]NC1COC(CO)CC1O[>][<]}{[>][<]*C[>][]},NC2C(O)C(OC1OC(CO)C(O(C[*]))C(O)C1N)C(CO)OC2(C[*]).CC(C)O,[N][C][C][Branch1_1][C][O][C][Branch2_1][Ring1][Branch2_1][O][C][O][C][Branch1_1][Ring1][C][O][C][Branch1_1][Branch1_1][O][Branch1_1][C][C][C][Branch1_1][C][O][C][Ring1][O][N][C][Branch1_1][Ring1][C][O][O][C][Ring2][Ring1][Branch1_2][Branch1_1][C][C].[C][C][Branch1_1][C][C][O],{[][<]*C[>][<]}{[>][<]O[>][<]}{[>][<]NC1COC(CO)CC1O[>][<]}{[>][<]O[>][<]}{[>][<]NC1COC(CO)CC1O[>][<]}{[>][<]*C[>][]}.CC(C)O
188,chitosan,55.1,40.0,ipa,23.5,20.0,30,13.3,0.0808,41.322314,NC2C(O)C(OC1OC(CO)C(O(C[*]))C(O)C1N)C(CO)OC2(C[*]),CC(C)O,"[2, 2, 11, 0, 5, 0, 2, 0, 0, 0, 4, 0, 0, 0, 0]",[N][C][C][Branch1_1][C][O][C][Branch2_1][Ring1][Branch2_1][O][C][O][C][Branch1_1][Ring1][C][O][C][Branch1_1][Branch1_1][O][Branch1_1][C][C][C][Branch1_1][C][O][C][Ring1][O][N][C][Branch1_1][Ring1][C][O][O][C][Ring2][Ring1][Branch1_2][Branch1_1][C][C],[C][C][Branch1_1][C][C][O],{[][<]*C[>][<]}{[>][<]O[>][<]}{[>][<]NC1COC(CO)CC1O[>][<]}{[>][<]O[>][<]}{[>][<]NC1COC(CO)CC1O[>][<]}{[>][<]*C[>][]},NC2C(O)C(OC1OC(CO)C(O(C[*]))C(O)C1N)C(CO)OC2(C[*]).CC(C)O,[N][C][C][Branch1_1][C][O][C][Branch2_1][Ring1][Branch2_1][O][C][O][C][Branch1_1][Ring1][C][O][C][Branch1_1][Branch1_1][O][Branch1_1][C][C][C][Branch1_1][C][O][C][Ring1][O][N][C][Branch1_1][Ring1][C][O][O][C][Ring2][Ring1][Branch1_2][Branch1_1][C][C].[C][C][Branch1_1][C][C][O],{[][<]*C[>][<]}{[>][<]O[>][<]}{[>][<]NC1COC(CO)CC1O[>][<]}{[>][<]O[>][<]}{[>][<]NC1COC(CO)CC1O[>][<]}{[>][<]*C[>][]}.CC(C)O
189,chitosan,55.1,40.0,ipa,23.5,10.0,40,13.3,0.0863,104.8,NC2C(O)C(OC1OC(CO)C(O(C[*]))C(O)C1N)C(CO)OC2(C[*]),CC(C)O,"[2, 2, 11, 0, 5, 0, 2, 0, 0, 0, 4, 0, 0, 0, 0]",[N][C][C][Branch1_1][C][O][C][Branch2_1][Ring1][Branch2_1][O][C][O][C][Branch1_1][Ring1][C][O][C][Branch1_1][Branch1_1][O][Branch1_1][C][C][C][Branch1_1][C][O][C][Ring1][O][N][C][Branch1_1][Ring1][C][O][O][C][Ring2][Ring1][Branch1_2][Branch1_1][C][C],[C][C][Branch1_1][C][C][O],{[][<]*C[>][<]}{[>][<]O[>][<]}{[>][<]NC1COC(CO)CC1O[>][<]}{[>][<]O[>][<]}{[>][<]NC1COC(CO)CC1O[>][<]}{[>][<]*C[>][]},NC2C(O)C(OC1OC(CO)C(O(C[*]))C(O)C1N)C(CO)OC2(C[*]).CC(C)O,[N][C][C][Branch1_1][C][O][C][Branch2_1][Ring1][Branch2_1][O][C][O][C][Branch1_1][Ring1][C][O][C][Branch1_1][Branch1_1][O][Branch1_1][C][C][C][Branch1_1][C][O][C][Ring1][O][N][C][Branch1_1][Ring1][C][O][O][C][Ring2][Ring1][Branch1_2][Branch1_1][C][C].[C][C][Branch1_1][C][C][O],{[][<]*C[>][<]}{[>][<]O[>][<]}{[>][<]NC1COC(CO)CC1O[>][<]}{[>][<]O[>][<]}{[>][<]NC1COC(CO)CC1O[>][<]}{[>][<]*C[>][]}.CC(C)O
190,chitosan,55.1,40.0,ipa,23.5,25.0,30,13.3,0.1043,24.793388,NC2C(O)C(OC1OC(CO)C(O(C[*]))C(O)C1N)C(CO)OC2(C[*]),CC(C)O,"[2, 2, 11, 0, 5, 0, 2, 0, 0, 0, 4, 0, 0, 0, 0]",[N][C][C][Branch1_1][C][O][C][Branch2_1][Ring1][Branch2_1][O][C][O][C][Branch1_1][Ring1][C][O][C][Branch1_1][Branch1_1][O][Branch1_1][C][C][C][Branch1_1][C][O][C][Ring1][O][N][C][Branch1_1][Ring1][C][O][O][C][Ring2][Ring1][Branch1_2][Branch1_1][C][C],[C][C][Branch1_1][C][C][O],{[][<]*C[>][<]}{[>][<]O[>][<]}{[>][<]NC1COC(CO)CC1O[>][<]}{[>][<]O[>][<]}{[>][<]NC1COC(CO)CC1O[>][<]}{[>][<]*C[>][]},NC2C(O)C(OC1OC(CO)C(O(C[*]))C(O)C1N)C(CO)OC2(C[*]).CC(C)O,[N][C][C][Branch1_1][C][O][C][Branch2_1][Ring1][Branch2_1][O][C][O][C][Branch1_1][Ring1][C][O][C][Branch1_1][Branch1_1][O][Branch1_1][C][C][C][Branch1_1][C][O][C][Ring1][O][N][C][Branch1_1][Ring1][C][O][O][C][Ring2][Ring1][Branch1_2][Branch1_1][C][C].[C][C][Branch1_1][C][C][O],{[][<]*C[>][<]}{[>][<]O[>][<]}{[>][<]NC1COC(CO)CC1O[>][<]}{[>][<]O[>][<]}{[>][<]NC1COC(CO)CC1O[>][<]}{[>][<]*C[>][]}.CC(C)O
191,chitosan,55.1,40.0,ipa,23.5,30.0,30,13.3,0.1094,24.793388,NC2C(O)C(OC1OC(CO)C(O(C[*]))C(O)C1N)C(CO)OC2(C[*]),CC(C)O,"[2, 2, 11, 0, 5, 0, 2, 0, 0, 0, 4, 0, 0, 0, 0]",[N][C][C][Branch1_1][C][O][C][Branch2_1][Ring1][Branch2_1][O][C][O][C][Branch1_1][Ring1][C][O][C][Branch1_1][Branch1_1][O][Branch1_1][C][C][C][Branch1_1][C][O][C][Ring1][O][N][C][Branch1_1][Ring1][C][O][O][C][Ring2][Ring1][Branch1_2][Branch1_1][C][C],[C][C][Branch1_1][C][C][O],{[][<]*C[>][<]}{[>][<]O[>][<]}{[>][<]NC1COC(CO)CC1O[>][<]}{[>][<]O[>][<]}{[>][<]NC1COC(CO)CC1O[>][<]}{[>][<]*C[>][]},NC2C(O)C(OC1OC(CO)C(O(C[*]))C(O)C1N)C(CO)OC2(C[*]).CC(C)O,[N][C][C][Branch1_1][C][O][C][Branch2_1][Ring1][Branch2_1][O][C][O][C][Branch1_1][Ring1][C][O][C][Branch1_1][Branch1_1][O][Branch1_1][C][C][C][Branch1_1][C][O][C][Ring1][O][N][C][Branch1_1][Ring1][C][O][O][C][Ring2][Ring1][Branch1_2][Branch1_1][C][C].[C][C][Branch1_1][C][C][O],{[][<]*C[>][<]}{[>][<]O[>][<]}{[>][<]NC1COC(CO)CC1O[>][<]}{[>][<]O[>][<]}{[>][<]NC1COC(CO)CC1O[>][<]}{[>][<]*C[>][]}.CC(C)O
194,chitosan,55.1,40.0,ipa,23.5,10.0,30,13.3,0.0314,540.201005,NC2C(O)C(OC1OC(CO)C(O(C[*]))C(O)C1N)C(CO)OC2(C[*]),CC(C)O,"[2, 2, 11, 0, 5, 0, 2, 0, 0, 0, 4, 0, 0, 0, 0]",[N][C][C][Branch1_1][C][O][C][Branch2_1][Ring1][Branch2_1][O][C][O][C][Branch1_1][Ring1][C][O][C][Branch1_1][Branch1_1][O][Branch1_1][C][C][C][Branch1_1][C][O][C][Ring1][O][N][C][Branch1_1][Ring1][C][O][O][C][Ring2][Ring1][Branch1_2][Branch1_1][C][C],[C][C][Branch1_1][C][C][O],{[][<]*C[>][<]}{[>][<]O[>][<]}{[>][<]NC1COC(CO)CC1O[>][<]}{[>][<]O[>][<]}{[>][<]NC1COC(CO)CC1O[>][<]}{[>][<]*C[>][]},NC2C(O)C(OC1OC(CO)C(O(C[*]))C(O)C1N)C(CO)OC2(C[*]).CC(C)O,[N][C][C][Branch1_1][C][O][C][Branch2_1][Ring1][Branch2_1][O][C][O][C][Branch1_1][Ring1][C][O][C][Branch1_1][Branch1_1][O][Branch1_1][C][C][C][Branch1_1][C][O][C][Ring1][O][N][C][Branch1_1][Ring1][C][O][O][C][Ring2][Ring1][Branch1_2][Branch1_1][C][C].[C][C][Branch1_1][C][C][O],{[][<]*C[>][<]}{[>][<]O[>][<]}{[>][<]NC1COC(CO)CC1O[>][<]}{[>][<]O[>][<]}{[>][<]NC1COC(CO)CC1O[>][<]}{[>][<]*C[>][]}.CC(C)O
195,chitosan,55.1,40.0,ipa,23.5,15.0,30,13.3,0.0537,175.879397,NC2C(O)C(OC1OC(CO)C(O(C[*]))C(O)C1N)C(CO)OC2(C[*]),CC(C)O,"[2, 2, 11, 0, 5, 0, 2, 0, 0, 0, 4, 0, 0, 0, 0]",[N][C][C][Branch1_1][C][O][C][Branch2_1][Ring1][Branch2_1][O][C][O][C][Branch1_1][Ring1][C][O][C][Branch1_1][Branch1_1][O][Branch1_1][C][C][C][Branch1_1][C][O][C][Ring1][O][N][C][Branch1_1][Ring1][C][O][O][C][Ring2][Ring1][Branch1_2][Branch1_1][C][C],[C][C][Branch1_1][C][C][O],{[][<]*C[>][<]}{[>][<]O[>][<]}{[>][<]NC1COC(CO)CC1O[>][<]}{[>][<]O[>][<]}{[>][<]NC1COC(CO)CC1O[>][<]}{[>][<]*C[>][]},NC2C(O)C(OC1OC(CO)C(O(C[*]))C(O)C1N)C(CO)OC2(C[*]).CC(C)O,[N][C][C][Branch1_1][C][O][C][Branch2_1][Ring1][Branch2_1][O][C][O][C][Branch1_1][Ring1][C][O][C][Branch1_1][Branch1_1][O][Branch1_1][C][C][C][Branch1_1][C][O][C][Ring1][O][N][C][Branch1_1][Ring1][C][O][O][C][Ring2][Ring1][Branch1_2][Branch1_1][C][C].[C][C][Branch1_1][C][C][O],{[][<]*C[>][<]}{[>][<]O[>][<]}{[>][<]NC1COC(CO)CC1O[>][<]}{[>][<]O[>][<]}{[>][<]NC1COC(CO)CC1O[>][<]}{[>][<]*C[>][]}.CC(C)O
197,chitosan,55.1,40.0,ipa,23.5,25.0,30,13.3,0.1031,50.251256,NC2C(O)C(OC1OC(CO)C(O(C[*]))C(O)C1N)C(CO)OC2(C[*]),CC(C)O,"[2, 2, 11, 0, 5, 0, 2, 0, 0, 0, 4, 0, 0, 0, 0]",[N][C][C][Branch1_1][C][O][C][Branch2_1][Ring1][Branch2_1][O][C][O][C][Branch1_1][Ring1][C][O][C][Branch1_1][Branch1_1][O][Branch1_1][C][C][C][Branch1_1][C][O][C][Ring1][O][N][C][Branch1_1][Ring1][C][O][O][C][Ring2][Ring1][Branch1_2][Branch1_1][C][C],[C][C][Branch1_1][C][C][O],{[][<]*C[>][<]}{[>][<]O[>][<]}{[>][<]NC1COC(CO)CC1O[>][<]}{[>][<]O[>][<]}{[>][<]NC1COC(CO)CC1O[>][<]}{[>][<]*C[>][]},NC2C(O)C(OC1OC(CO)C(O(C[*]))C(O)C1N)C(CO)OC2(C[*]).CC(C)O,[N][C][C][Branch1_1][C][O][C][Branch2_1][Ring1][Branch2_1][O][C][O][C][Branch1_1][Ring1][C][O][C][Branch1_1][Branch1_1][O][Branch1_1][C][C][C][Branch1_1][C][O][C][Ring1][O][N][C][Branch1_1][Ring1][C][O][O][C][Ring2][Ring1][Branch1_2][Branch1_1][C][C].[C][C][Branch1_1][C][C][O],{[][<]*C[>][<]}{[>][<]O[>][<]}{[>][<]NC1COC(CO)CC1O[>][<]}{[>][<]O[>][<]}{[>][<]NC1COC(CO)CC1O[>][<]}{[>][<]*C[>][]}.CC(C)O
198,chitosan,55.1,40.0,ipa,23.5,5.0,30,13.3,0.0466,617.169374,NC2C(O)C(OC1OC(CO)C(O(C[*]))C(O)C1N)C(CO)OC2(C[*]),CC(C)O,"[2, 2, 11, 0, 5, 0, 2, 0, 0, 0, 4, 0, 0, 0, 0]",[N][C][C][Branch1_1][C][O][C][Branch2_1][Ring1][Branch2_1][O][C][O][C][Branch1_1][Ring1][C][O][C][Branch1_1][Branch1_1][O][Branch1_1][C][C][C][Branch1_1][C][O][C][Ring1][O][N][C][Branch1_1][Ring1][C][O][O][C][Ring2][Ring1][Branch1_2][Branch1_1][C][C],[C][C][Branch1_1][C][C][O],{[][<]*C[>][<]}{[>][<]O[>][<]}{[>][<]NC1COC(CO)CC1O[>][<]}{[>][<]O[>][<]}{[>][<]NC1COC(CO)CC1O[>][<]}{[>][<]*C[>][]},NC2C(O)C(OC1OC(CO)C(O(C[*]))C(O)C1N)C(CO)OC2(C[*]).CC(C)O,[N][C][C][Branch1_1][C][O][C][Branch2_1][Ring1][Branch2_1][O][C][O][C][Branch1_1][Ring1][C][O][C][Branch1_1][Branch1_1][O][Branch1_1][C][C][C][Branch1_1][C][O][C][Ring1][O][N][C][Branch1_1][Ring1][C][O][O][C][Ring2][Ring1][Branch1_2][Branch1_1][C][C].[C][C][Branch1_1][C][C][O],{[][<]*C[>][<]}{[>][<]O[>][<]}{[>][<]NC1COC(CO)CC1O[>][<]}{[>][<]O[>][<]}{[>][<]NC1COC(CO)CC1O[>][<]}{[>][<]*C[>][]}.CC(C)O
199,chitosan,55.1,40.0,ipa,23.5,10.0,30,13.3,0.0731,265.0,NC2C(O)C(OC1OC(CO)C(O(C[*]))C(O)C1N)C(CO)OC2(C[*]),CC(C)O,"[2, 2, 11, 0, 5, 0, 2, 0, 0, 0, 4, 0, 0, 0, 0]",[N][C][C][Branch1_1][C][O][C][Branch2_1][Ring1][Branch2_1][O][C][O][C][Branch1_1][Ring1][C][O][C][Branch1_1][Branch1_1][O][Branch1_1][C][C][C][Branch1_1][C][O][C][Ring1][O][N][C][Branch1_1][Ring1][C][O][O][C][Ring2][Ring1][Branch1_2][Branch1_1][C][C],[C][C][Branch1_1][C][C][O],{[][<]*C[>][<]}{[>][<]O[>][<]}{[>][<]NC1COC(CO)CC1O[>][<]}{[>][<]O[>][<]}{[>][<]NC1COC(CO)CC1O[>][<]}{[>][<]*C[>][]},NC2C(O)C(OC1OC(CO)C(O(C[*]))C(O)C1N)C(CO)OC2(C[*]).CC(C)O,[N][C][C][Branch1_1][C][O][C][Branch2_1][Ring1][Branch2_1][O][C][O][C][Branch1_1][Ring1][C][O][C][Branch1_1][Branch1_1][O][Branch1_1][C][C][C][Branch1_1][C][O][C][Ring1][O][N][C][Branch1_1][Ring1][C][O][O][C][Ring2][Ring1][Branch1_2][Branch1_1][C][C].[C][C][Branch1_1][C][C][O],{[][<]*C[>][<]}{[>][<]O[>][<]}{[>][<]NC1COC(CO)CC1O[>][<]}{[>][<]O[>][<]}{[>][<]NC1COC(CO)CC1O[>][<]}{[>][<]*C[>][]}.CC(C)O
200,chitosan,55.1,40.0,ipa,23.5,20.0,30,13.3,0.1079,97.447796,NC2C(O)C(OC1OC(CO)C(O(C[*]))C(O)C1N)C(CO)OC2(C[*]),CC(C)O,"[2, 2, 11, 0, 5, 0, 2, 0, 0, 0, 4, 0, 0, 0, 0]",[N][C][C][Branch1_1][C][O][C][Branch2_1][Ring1][Branch2_1][O][C][O][C][Branch1_1][Ring1][C][O][C][Branch1_1][Branch1_1][O][Branch1_1][C][C][C][Branch1_1][C][O][C][Ring1][O][N][C][Branch1_1][Ring1][C][O][O][C][Ring2][Ring1][Branch1_2][Branch1_1][C][C],[C][C][Branch1_1][C][C][O],{[][<]*C[>][<]}{[>][<]O[>][<]}{[>][<]NC1COC(CO)CC1O[>][<]}{[>][<]O[>][<]}{[>][<]NC1COC(CO)CC1O[>][<]}{[>][<]*C[>][]},NC2C(O)C(OC1OC(CO)C(O(C[*]))C(O)C1N)C(CO)OC2(C[*]).CC(C)O,[N][C][C][Branch1_1][C][O][C][Branch2_1][Ring1][Branch2_1][O][C][O][C][Branch1_1][Ring1][C][O][C][Branch1_1][Branch1_1][O][Branch1_1][C][C][C][Branch1_1][C][O][C][Ring1][O][N][C][Branch1_1][Ring1][C][O][O][C][Ring2][Ring1][Branch1_2][Branch1_1][C][C].[C][C][Branch1_1][C][C][O],{[][<]*C[>][<]}{[>][<]O[>][<]}{[>][<]NC1COC(CO)CC1O[>][<]}{[>][<]O[>][<]}{[>][<]NC1COC(CO)CC1O[>][<]}{[>][<]*C[>][]}.CC(C)O
201,chitosan,55.1,40.0,ipa,23.5,10.0,40,13.3,0.1084,105.0,NC2C(O)C(OC1OC(CO)C(O(C[*]))C(O)C1N)C(CO)OC2(C[*]),CC(C)O,"[2, 2, 11, 0, 5, 0, 2, 0, 0, 0, 4, 0, 0, 0, 0]",[N][C][C][Branch1_1][C][O][C][Branch2_1][Ring1][Branch2_1][O][C][O][C][Branch1_1][Ring1][C][O][C][Branch1_1][Branch1_1][O][Branch1_1][C][C][C][Branch1_1][C][O][C][Ring1][O][N][C][Branch1_1][Ring1][C][O][O][C][Ring2][Ring1][Branch1_2][Branch1_1][C][C],[C][C][Branch1_1][C][C][O],{[][<]*C[>][<]}{[>][<]O[>][<]}{[>][<]NC1COC(CO)CC1O[>][<]}{[>][<]O[>][<]}{[>][<]NC1COC(CO)CC1O[>][<]}{[>][<]*C[>][]},NC2C(O)C(OC1OC(CO)C(O(C[*]))C(O)C1N)C(CO)OC2(C[*]).CC(C)O,[N][C][C][Branch1_1][C][O][C][Branch2_1][Ring1][Branch2_1][O][C][O][C][Branch1_1][Ring1][C][O][C][Branch1_1][Branch1_1][O][Branch1_1][C][C][C][Branch1_1][C][O][C][Ring1][O][N][C][Branch1_1][Ring1][C][O][O][C][Ring2][Ring1][Branch1_2][Branch1_1][C][C].[C][C][Branch1_1][C][C][O],{[][<]*C[>][<]}{[>][<]O[>][<]}{[>][<]NC1COC(CO)CC1O[>][<]}{[>][<]O[>][<]}{[>][<]NC1COC(CO)CC1O[>][<]}{[>][<]*C[>][]}.CC(C)O
202,chitosan,55.1,40.0,ipa,23.5,10.0,50,13.3,0.1274,73.0,NC2C(O)C(OC1OC(CO)C(O(C[*]))C(O)C1N)C(CO)OC2(C[*]),CC(C)O,"[2, 2, 11, 0, 5, 0, 2, 0, 0, 0, 4, 0, 0, 0, 0]",[N][C][C][Branch1_1][C][O][C][Branch2_1][Ring1][Branch2_1][O][C][O][C][Branch1_1][Ring1][C][O][C][Branch1_1][Branch1_1][O][Branch1_1][C][C][C][Branch1_1][C][O][C][Ring1][O][N][C][Branch1_1][Ring1][C][O][O][C][Ring2][Ring1][Branch1_2][Branch1_1][C][C],[C][C][Branch1_1][C][C][O],{[][<]*C[>][<]}{[>][<]O[>][<]}{[>][<]NC1COC(CO)CC1O[>][<]}{[>][<]O[>][<]}{[>][<]NC1COC(CO)CC1O[>][<]}{[>][<]*C[>][]},NC2C(O)C(OC1OC(CO)C(O(C[*]))C(O)C1N)C(CO)OC2(C[*]).CC(C)O,[N][C][C][Branch1_1][C][O][C][Branch2_1][Ring1][Branch2_1][O][C][O][C][Branch1_1][Ring1][C][O][C][Branch1_1][Branch1_1][O][Branch1_1][C][C][C][Branch1_1][C][O][C][Ring1][O][N][C][Branch1_1][Ring1][C][O][O][C][Ring2][Ring1][Branch1_2][Branch1_1][C][C].[C][C][Branch1_1][C][C][O],{[][<]*C[>][<]}{[>][<]O[>][<]}{[>][<]NC1COC(CO)CC1O[>][<]}{[>][<]O[>][<]}{[>][<]NC1COC(CO)CC1O[>][<]}{[>][<]*C[>][]}.CC(C)O
203,chitosan,55.1,40.0,ipa,23.5,10.0,60,13.3,0.1659,58.0,NC2C(O)C(OC1OC(CO)C(O(C[*]))C(O)C1N)C(CO)OC2(C[*]),CC(C)O,"[2, 2, 11, 0, 5, 0, 2, 0, 0, 0, 4, 0, 0, 0, 0]",[N][C][C][Branch1_1][C][O][C][Branch2_1][Ring1][Branch2_1][O][C][O][C][Branch1_1][Ring1][C][O][C][Branch1_1][Branch1_1][O][Branch1_1][C][C][C][Branch1_1][C][O][C][Ring1][O][N][C][Branch1_1][Ring1][C][O][O][C][Ring2][Ring1][Branch1_2][Branch1_1][C][C],[C][C][Branch1_1][C][C][O],{[][<]*C[>][<]}{[>][<]O[>][<]}{[>][<]NC1COC(CO)CC1O[>][<]}{[>][<]O[>][<]}{[>][<]NC1COC(CO)CC1O[>][<]}{[>][<]*C[>][]},NC2C(O)C(OC1OC(CO)C(O(C[*]))C(O)C1N)C(CO)OC2(C[*]).CC(C)O,[N][C][C][Branch1_1][C][O][C][Branch2_1][Ring1][Branch2_1][O][C][O][C][Branch1_1][Ring1][C][O][C][Branch1_1][Branch1_1][O][Branch1_1][C][C][C][Branch1_1][C][O][C][Ring1][O][N][C][Branch1_1][Ring1][C][O][O][C][Ring2][Ring1][Branch1_2][Branch1_1][C][C].[C][C][Branch1_1][C][C][O],{[][<]*C[>][<]}{[>][<]O[>][<]}{[>][<]NC1COC(CO)CC1O[>][<]}{[>][<]O[>][<]}{[>][<]NC1COC(CO)CC1O[>][<]}{[>][<]*C[>][]}.CC(C)O
205,chitosan,55.1,40.0,ipa,23.5,40.0,30,13.3,0.2152,32.482599,NC2C(O)C(OC1OC(CO)C(O(C[*]))C(O)C1N)C(CO)OC2(C[*]),CC(C)O,"[2, 2, 11, 0, 5, 0, 2, 0, 0, 0, 4, 0, 0, 0, 0]",[N][C][C][Branch1_1][C][O][C][Branch2_1][Ring1][Branch2_1][O][C][O][C][Branch1_1][Ring1][C][O][C][Branch1_1][Branch1_1][O][Branch1_1][C][C][C][Branch1_1][C][O][C][Ring1][O][N][C][Branch1_1][Ring1][C][O][O][C][Ring2][Ring1][Branch1_2][Branch1_1][C][C],[C][C][Branch1_1][C][C][O],{[][<]*C[>][<]}{[>][<]O[>][<]}{[>][<]NC1COC(CO)CC1O[>][<]}{[>][<]O[>][<]}{[>][<]NC1COC(CO)CC1O[>][<]}{[>][<]*C[>][]},NC2C(O)C(OC1OC(CO)C(O(C[*]))C(O)C1N)C(CO)OC2(C[*]).CC(C)O,[N][C][C][Branch1_1][C][O][C][Branch2_1][Ring1][Branch2_1][O][C][O][C][Branch1_1][Ring1][C][O][C][Branch1_1][Branch1_1][O][Branch1_1][C][C][C][Branch1_1][C][O][C][Ring1][O][N][C][Branch1_1][Ring1][C][O][O][C][Ring2][Ring1][Branch1_2][Branch1_1][C][C].[C][C][Branch1_1][C][C][O],{[][<]*C[>][<]}{[>][<]O[>][<]}{[>][<]NC1COC(CO)CC1O[>][<]}{[>][<]O[>][<]}{[>][<]NC1COC(CO)CC1O[>][<]}{[>][<]*C[>][]}.CC(C)O
206,alginate,37.37,1.8,ethanol,26.5,10.0,45,1.0,0.2783,562.790698,O=C(O)C1OC(C[*])C(O)C(O)C1O(C[*]),CCO,"[1, 1, 10, 2, 7, 0, 0, 0, 0, 0, 4, 0, 0, 0, 0]",[O][=C][Branch1_1][C][O][C][O][C][Branch1_1][C][C][C][Branch1_1][C][O][C][Branch1_1][C][O][C][Ring1][Branch2_2][O][Branch1_1][C][C].[O][=C][Branch1_1][C][O][C][O][C][Branch1_1][C][C][C][Branch1_1][C][O][C][Branch1_1][C][O][C][Ring1][Branch2_2][O][Branch1_1][C][C],[C][C][O],{[][<]*C[>][<]}{[>][<]O=C(O)C1CC(O)C(O)CO1[>][<]}{[>][<]O[>][<]}{[>][<]*C[>][]},O=C(O)C1OC(C[*])C(O)C(O)C1O(C[*]).CCO,[O][=C][Branch1_1][C][O][C][O][C][Branch1_1][C][C][C][Branch1_1][C][O][C][Branch1_1][C][O][C][Ring1][Branch2_2][O][Branch1_1][C][C].[O][=C][Branch1_1][C][O][C][O][C][Branch1_1][C][C][C][Branch1_1][C][O][C][Branch1_1][C][O][C][Ring1][Branch2_2][O][Branch1_1][C][C].[C][C][O],{[][<]*C[>][<]}{[>][<]O=C(O)C1CC(O)C(O)CO1[>][<]}{[>][<]O[>][<]}{[>][<]*C[>][]}.CCO
207,alginate,37.37,1.8,ipa,23.5,10.0,45,1.0,0.3152,1974.883721,O=C(O)C1OC(C[*])C(O)C(O)C1O(C[*]),CC(C)O,"[2, 0, 11, 2, 7, 0, 0, 0, 0, 0, 4, 0, 0, 0, 0]",[O][=C][Branch1_1][C][O][C][O][C][Branch1_1][C][C][C][Branch1_1][C][O][C][Branch1_1][C][O][C][Ring1][Branch2_2][O][Branch1_1][C][C].[O][=C][Branch1_1][C][O][C][O][C][Branch1_1][C][C][C][Branch1_1][C][O][C][Branch1_1][C][O][C][Ring1][Branch2_2][O][Branch1_1][C][C],[C][C][Branch1_1][C][C][O],{[][<]*C[>][<]}{[>][<]O=C(O)C1CC(O)C(O)CO1[>][<]}{[>][<]O[>][<]}{[>][<]*C[>][]},O=C(O)C1OC(C[*])C(O)C(O)C1O(C[*]).CC(C)O,[O][=C][Branch1_1][C][O][C][O][C][Branch1_1][C][C][C][Branch1_1][C][O][C][Branch1_1][C][O][C][Ring1][Branch2_2][O][Branch1_1][C][C].[O][=C][Branch1_1][C][O][C][O][C][Branch1_1][C][C][C][Branch1_1][C][O][C][Branch1_1][C][O][C][Ring1][Branch2_2][O][Branch1_1][C][C].[C][C][Branch1_1][C][C][O],{[][<]*C[>][<]}{[>][<]O=C(O)C1CC(O)C(O)CO1[>][<]}{[>][<]O[>][<]}{[>][<]*C[>][]}.CC(C)O
208,pva,74.0,1.8,ethanol,26.5,10.0,45,1.0,0.4028,235.348837,C(*)C(*)(O),CCO,"[1, 2, 1, 0, 2, 0, 0, 0, 0, 0, 0, 0, 0, 0, 0]",[C][Branch1_1][C][C][C][Branch1_1][C][C][Branch1_1][C][O],[C][C][O],{[][<]*C[>][<]}{[>][<]*CO[>][]},C(*)C(*)(O).CCO,[C][Branch1_1][C][C][C][Branch1_1][C][C][Branch1_1][C][O].[C][C][O],{[][<]*C[>][<]}{[>][<]*CO[>][]}.CCO