Index,Polymer,Contact_angle,Thickness_um,Solvent,Solvent_solubility_parameter_Mpa_sqrt,xw_wt_percent,Temp_C,Permeate_pressure_mbar,J_Total_flux_kg_m_2h_1,a_Separation_factor_wo,Polymer_SMILES,Solvent_SMILES,Sum_of_frags,Polymer_SELFIES,Solvent_SELFIES,Polymer_BigSMILES,PS_SMILES,PS_SELFIES,PS_BigSMILES
1,chitosan,55.1,40.0,ipa,23.5,5.0,30,13.3,0.0378,606.617647,NC2C(O)C(OC1OC(CO)C(O(C[*]))C(O)C1N)C(CO)OC2(C[*]),CC(C)O,"[2, 2, 11, 0, 5, 0, 2, 0, 0, 0, 4, 0, 0, 0, 0]",[N][C][C][Branch1_1][C][O][C][Branch2_1][Ring1][Branch2_1][O][C][O][C][Branch1_1][Ring1][C][O][C][Branch1_1][Branch1_1][O][Branch1_1][C][C][C][Branch1_1][C][O][C][Ring1][O][N][C][Branch1_1][Ring1][C][O][O][C][Ring2][Ring1][Branch1_2][Branch1_1][C][C],[C][C][Branch1_1][C][C][O],{[][<]*C[>][<]}{[>][<]O[>][<]}{[>][<]NC1COC(CO)CC1O[>][<]}{[>][<]O[>][<]}{[>][<]NC1COC(CO)CC1O[>][<]}{[>][<]*C[>][]},NC2C(O)C(OC1OC(CO)C(O(C[*]))C(O)C1N)C(CO)OC2(C[*]).CC(C)O,[N][C][C][Branch1_1][C][O][C][Branch2_1][Ring1][Branch2_1][O][C][O][C][Branch1_1][Ring1][C][O][C][Branch1_1][Branch1_1][O][Branch1_1][C][C][C][Branch1_1][C][O][C][Ring1][O][N][C][Branch1_1][Ring1][C][O][O][C][Ring2][Ring1][Branch1_2][Branch1_1][C][C].[C][C][Branch1_1][C][C][O],{[][<]*C[>][<]}{[>][<]O[>][<]}{[>][<]NC1COC(CO)CC1O[>][<]}{[>][<]O[>][<]}{[>][<]NC1COC(CO)CC1O[>][<]}{[>][<]*C[>][]}.CC(C)O
2,chitosan,55.1,40.0,ipa,23.5,10.0,30,13.3,0.0523,257.352941,NC2C(O)C(OC1OC(CO)C(O(C[*]))C(O)C1N)C(CO)OC2(C[*]),CC(C)O,"[2, 2, 11, 0, 5, 0, 2, 0, 0, 0, 4, 0, 0, 0, 0]",[N][C][C][Branch1_1][C][O][C][Branch2_1][Ring1][Branch2_1][O][C][O][C][Branch1_1][Ring1][C][O][C][Branch1_1][Branch1_1][O][Branch1_1][C][C][C][Branch1_1][C][O][C][Ring1][O][N][C][Branch1_1][Ring1][C][O][O][C][Ring2][Ring1][Branch1_2][Branch1_1][C][C],[C][C][Branch1_1][C][C][O],{[][<]*C[>][<]}{[>][<]O[>][<]}{[>][<]NC1COC(CO)CC1O[>][<]}{[>][<]O[>][<]}{[>][<]NC1COC(CO)CC1O[>][<]}{[>][<]*C[>][]},NC2C(O)C(OC1OC(CO)C(O(C[*]))C(O)C1N)C(CO)OC2(C[*]).CC(C)O,[N][C][C][Branch1_1][C][O][C][Branch2_1][Ring1][Branch2_1][O][C][O][C][Branch1_1][Ring1][C][O][C][Branch1_1][Branch1_1][O][Branch1_1][C][C][C][Branch1_1][C][O][C][Ring1][O][N][C][Branch1_1][Ring1][C][O][O][C][Ring2][Ring1][Branch1_2][Branch1_1][C][C].[C][C][Branch1_1][C][C][O],{[][<]*C[>][<]}{[>][<]O[>][<]}{[>][<]NC1COC(CO)CC1O[>][<]}{[>][<]O[>][<]}{[>][<]NC1COC(CO)CC1O[>][<]}{[>][<]*C[>][]}.CC(C)O
3,chitosan,55.1,40.0,ipa,23.5,15.0,30,13.3,0.0894,122.54902,NC2C(O)C(OC1OC(CO)C(O(C[*]))C(O)C1N)C(CO)OC2(C[*]),CC(C)O,"[2, 2, 11, 0, 5, 0, 2, 0, 0, 0, 4, 0, 0, 0, 0]",[N][C][C][Branch1_1][C][O][C][Branch2_1][Ring1][Branch2_1][O][C][O][C][Branch1_1][Ring1][C][O][C][Branch1_1][Branch1_1][O][Branch1_1][C][C][C][Branch1_1][C][O][C][Ring1][O][N][C][Branch1_1][Ring1][C][O][O][C][Ring2][Ring1][Branch1_2][Branch1_1][C][C],[C][C][Branch1_1][C][C][O],{[][<]*C[>][<]}{[>][<]O[>][<]}{[>][<]NC1COC(CO)CC1O[>][<]}{[>][<]O[>][<]}{[>][<]NC1COC(CO)CC1O[>][<]}{[>][<]*C[>][]},NC2C(O)C(OC1OC(CO)C(O(C[*]))C(O)C1N)C(CO)OC2(C[*]).CC(C)O,[N][C][C][Branch1_1][C][O][C][Branch2_1][Ring1][Branch2_1][O][C][O][C][Branch1_1][Ring1][C][O][C][Branch1_1][Branch1_1][O][Branch1_1][C][C][C][Branch1_1][C][O][C][Ring1][O][N][C][Branch1_1][Ring1][C][O][O][C][Ring2][Ring1][Branch1_2][Branch1_1][C][C].[C][C][Branch1_1][C][C][O],{[][<]*C[>][<]}{[>][<]O[>][<]}{[>][<]NC1COC(CO)CC1O[>][<]}{[>][<]O[>][<]}{[>][<]NC1COC(CO)CC1O[>][<]}{[>][<]*C[>][]}.CC(C)O
4,chitosan,55.1,40.0,ipa,23.5,20.0,30,13.3,0.17,73.529412,NC2C(O)C(OC1OC(CO)C(O(C[*]))C(O)C1N)C(CO)OC2(C[*]),CC(C)O,"[2, 2, 11, 0, 5, 0, 2, 0, 0, 0, 4, 0, 0, 0, 0]",[N][C][C][Branch1_1][C][O][C][Branch2_1][Ring1][Branch2_1][O][C][O][C][Branch1_1][Ring1][C][O][C][Branch1_1][Branch1_1][O][Branch1_1][C][C][C][Branch1_1][C][O][C][Ring1][O][N][C][Branch1_1][Ring1][C][O][O][C][Ring2][Ring1][Branch1_2][Branch1_1][C][C],[C][C][Branch1_1][C][C][O],{[][<]*C[>][<]}{[>][<]O[>][<]}{[>][<]NC1COC(CO)CC1O[>][<]}{[>][<]O[>][<]}{[>][<]NC1COC(CO)CC1O[>][<]}{[>][<]*C[>][]},NC2C(O)C(OC1OC(CO)C(O(C[*]))C(O)C1N)C(CO)OC2(C[*]).CC(C)O,[N][C][C][Branch1_1][C][O][C][Branch2_1][Ring1][Branch2_1][O][C][O][C][Branch1_1][Ring1][C][O][C][Branch1_1][Branch1_1][O][Branch1_1][C][C][C][Branch1_1][C][O][C][Ring1][O][N][C][Branch1_1][Ring1][C][O][O][C][Ring2][Ring1][Branch1_2][Branch1_1][C][C].[C][C][Branch1_1][C][C][O],{[][<]*C[>][<]}{[>][<]O[>][<]}{[>][<]NC1COC(CO)CC1O[>][<]}{[>][<]O[>][<]}{[>][<]NC1COC(CO)CC1O[>][<]}{[>][<]*C[>][]}.CC(C)O
5,chitosan,55.1,40.0,ipa,23.5,25.0,30,13.3,0.1984,49.019608,NC2C(O)C(OC1OC(CO)C(O(C[*]))C(O)C1N)C(CO)OC2(C[*]),CC(C)O,"[2, 2, 11, 0, 5, 0, 2, 0, 0, 0, 4, 0, 0, 0, 0]",[N][C][C][Branch1_1][C][O][C][Branch2_1][Ring1][Branch2_1][O][C][O][C][Branch1_1][Ring1][C][O][C][Branch1_1][Branch1_1][O][Branch1_1][C][C][C][Branch1_1][C][O][C][Ring1][O][N][C][Branch1_1][Ring1][C][O][O][C][Ring2][Ring1][Branch1_2][Branch1_1][C][C],[C][C][Branch1_1][C][C][O],{[][<]*C[>][<]}{[>][<]O[>][<]}{[>][<]NC1COC(CO)CC1O[>][<]}{[>][<]O[>][<]}{[>][<]NC1COC(CO)CC1O[>][<]}{[>][<]*C[>][]},NC2C(O)C(OC1OC(CO)C(O(C[*]))C(O)C1N)C(CO)OC2(C[*]).CC(C)O,[N][C][C][Branch1_1][C][O][C][Branch2_1][Ring1][Branch2_1][O][C][O][C][Branch1_1][Ring1][C][O][C][Branch1_1][Branch1_1][O][Branch1_1][C][C][C][Branch1_1][C][O][C][Ring1][O][N][C][Branch1_1][Ring1][C][O][O][C][Ring2][Ring1][Branch1_2][Branch1_1][C][C].[C][C][Branch1_1][C][C][O],{[][<]*C[>][<]}{[>][<]O[>][<]}{[>][<]NC1COC(CO)CC1O[>][<]}{[>][<]O[>][<]}{[>][<]NC1COC(CO)CC1O[>][<]}{[>][<]*C[>][]}.CC(C)O
6,pdms,104.0,12.0,n-butanol,23.1,99.0,40,3.0,0.4364,0.028205,*O[Si](*)(C)C,CCCCO,"[3, 3, 0, 0, 1, 0, 0, 0, 0, 0, 1, 0, 0, 1, 0]",[Siexpl][Branch1_1][C][C][Branch1_1][C][C][Branch1_1][C][C][O][Branch1_1][C][C],[C][C][C][C][O],{[][<]*O[>][<]}{[>][<]*[Si](C)C[>][]},*O[Si](*)(C)C.CCCCO,[Siexpl][Branch1_1][C][C][Branch1_1][C][C][Branch1_1][C][C][O][Branch1_1][C][C].[C][C][C][C][O],{[][<]*O[>][<]}{[>][<]*[Si](C)C[>][]}.CCCCO
7,pdms,104.0,12.0,n-butanol,23.1,95.0,40,3.0,0.9849,0.028701,*O[Si](*)(C)C,CCCCO,"[3, 3, 0, 0, 1, 0, 0, 0, 0, 0, 1, 0, 0, 1, 0]",[Siexpl][Branch1_1][C][C][Branch1_1][C][C][Branch1_1][C][C][O][Branch1_1][C][C],[C][C][C][C][O],{[][<]*O[>][<]}{[>][<]*[Si](C)C[>][]},*O[Si](*)(C)C.CCCCO,[Siexpl][Branch1_1][C][C][Branch1_1][C][C][Branch1_1][C][C][O][Branch1_1][C][C].[C][C][C][C][O],{[][<]*O[>][<]}{[>][<]*[Si](C)C[>][]}.CCCCO
8,pdms,104.0,12.0,n-butanol,23.1,99.0,80,3.0,1.1455,0.028871,*O[Si](*)(C)C,CCCCO,"[3, 3, 0, 0, 1, 0, 0, 0, 0, 0, 1, 0, 0, 1, 0]",[Siexpl][Branch1_1][C][C][Branch1_1][C][C][Branch1_1][C][C][O][Branch1_1][C][C],[C][C][C][C][O],{[][<]*O[>][<]}{[>][<]*[Si](C)C[>][]},*O[Si](*)(C)C.CCCCO,[Siexpl][Branch1_1][C][C][Branch1_1][C][C][Branch1_1][C][C][O][Branch1_1][C][C].[C][C][C][C][O],{[][<]*O[>][<]}{[>][<]*[Si](C)C[>][]}.CCCCO
9,peba,89.0,100.0,ipa,23.5,60.0,30,6.7,1.2722,0.472727187,O=C(C(=O)OOC(=O)CCCCCCCCCCCN(CCCCO[*]))[*],CC(C)O,"[3, 14, 1, 3, 1, 0, 0, 1, 0, 0, 3, 0, 0, 0, 0]",[C][Branch1_1][C][C][=O].[C][O][C][Branch1_1][C][C][=O].[C][O][C].[C][N][C][C][C][C][C][C][C][C][C][C][C][C][Branch1_1][C][C][=O].[C][C][C][C][C][O][C],[C][C][Branch1_1][C][C][O],{[][<]*O[>][<]}{[>][<]C[>][<]}{[>][<]C[>][<]}{[>][<]C[>][<]}{[>][<]C[>][<]}{[>][<]N[>][<]}{[>][<]C[>][<]}{[>][<]C[>][<]}{[>][<]C[>][<]}{[>][<]C[>][<]}{[>][<]C[>][<]}{[>][<]C[>][<]}{[>][<]C[>][<]}{[>][<]C[>][<]}{[>][<]C[>][<]}{[>][<]C[>][<]}{[>][<]C[>][<]}{[>][<]C=O[>][<]}{[>][<]O[>][<]}{[>][<]O[>][<]}{[>][<]C=O[>][<]}{[>][<]*C=O[>][]},O=C(C(=O)OOC(=O)CCCCCCCCCCCN(CCCCO[*]))[*].CC(C)O,[C][Branch1_1][C][C][=O].[C][O][C][Branch1_1][C][C][=O].[C][O][C].[C][N][C][C][C][C][C][C][C][C][C][C][C][C][Branch1_1][C][C][=O].[C][C][C][C][C][O][C].[C][C][Branch1_1][C][C][O],{[][<]*O[>][<]}{[>][<]C[>][<]}{[>][<]C[>][<]}{[>][<]C[>][<]}{[>][<]C[>][<]}{[>][<]N[>][<]}{[>][<]C[>][<]}{[>][<]C[>][<]}{[>][<]C[>][<]}{[>][<]C[>][<]}{[>][<]C[>][<]}{[>][<]C[>][<]}{[>][<]C[>][<]}{[>][<]C[>][<]}{[>][<]C[>][<]}{[>][<]C[>][<]}{[>][<]C[>][<]}{[>][<]C=O[>][<]}{[>][<]O[>][<]}{[>][<]O[>][<]}{[>][<]C=O[>][<]}{[>][<]*C=O[>][]}.CC(C)O
10,peba,89.0,100.0,ipa,23.5,70.0,30,6.7,0.769,0.371428529,O=C(C(=O)OOC(=O)CCCCCCCCCCCN(CCCCO[*]))[*],CC(C)O,"[3, 14, 1, 3, 1, 0, 0, 1, 0, 0, 3, 0, 0, 0, 0]",[C][Branch1_1][C][C][=O].[C][O][C][Branch1_1][C][C][=O].[C][O][C].[C][N][C][C][C][C][C][C][C][C][C][C][C][C][Branch1_1][C][C][=O].[C][C][C][C][C][O][C],[C][C][Branch1_1][C][C][O],{[][<]*O[>][<]}{[>][<]C[>][<]}{[>][<]C[>][<]}{[>][<]C[>][<]}{[>][<]C[>][<]}{[>][<]N[>][<]}{[>][<]C[>][<]}{[>][<]C[>][<]}{[>][<]C[>][<]}{[>][<]C[>][<]}{[>][<]C[>][<]}{[>][<]C[>][<]}{[>][<]C[>][<]}{[>][<]C[>][<]}{[>][<]C[>][<]}{[>][<]C[>][<]}{[>][<]C[>][<]}{[>][<]C=O[>][<]}{[>][<]O[>][<]}{[>][<]O[>][<]}{[>][<]C=O[>][<]}{[>][<]*C=O[>][]},O=C(C(=O)OOC(=O)CCCCCCCCCCCN(CCCCO[*]))[*].CC(C)O,[C][Branch1_1][C][C][=O].[C][O][C][Branch1_1][C][C][=O].[C][O][C].[C][N][C][C][C][C][C][C][C][C][C][C][C][C][Branch1_1][C][C][=O].[C][C][C][C][C][O][C].[C][C][Branch1_1][C][C][O],{[][<]*O[>][<]}{[>][<]C[>][<]}{[>][<]C[>][<]}{[>][<]C[>][<]}{[>][<]C[>][<]}{[>][<]N[>][<]}{[>][<]C[>][<]}{[>][<]C[>][<]}{[>][<]C[>][<]}{[>][<]C[>][<]}{[>][<]C[>][<]}{[>][<]C[>][<]}{[>][<]C[>][<]}{[>][<]C[>][<]}{[>][<]C[>][<]}{[>][<]C[>][<]}{[>][<]C[>][<]}{[>][<]C=O[>][<]}{[>][<]O[>][<]}{[>][<]O[>][<]}{[>][<]C=O[>][<]}{[>][<]*C=O[>][]}.CC(C)O
11,peba,89.0,100.0,ipa,23.5,80.0,30,6.7,0.5411,0.305882331,O=C(C(=O)OOC(=O)CCCCCCCCCCCN(CCCCO[*]))[*],CC(C)O,"[3, 14, 1, 3, 1, 0, 0, 1, 0, 0, 3, 0, 0, 0, 0]",[C][Branch1_1][C][C][=O].[C][O][C][Branch1_1][C][C][=O].[C][O][C].[C][N][C][C][C][C][C][C][C][C][C][C][C][C][Branch1_1][C][C][=O].[C][C][C][C][C][O][C],[C][C][Branch1_1][C][C][O],{[][<]*O[>][<]}{[>][<]C[>][<]}{[>][<]C[>][<]}{[>][<]C[>][<]}{[>][<]C[>][<]}{[>][<]N[>][<]}{[>][<]C[>][<]}{[>][<]C[>][<]}{[>][<]C[>][<]}{[>][<]C[>][<]}{[>][<]C[>][<]}{[>][<]C[>][<]}{[>][<]C[>][<]}{[>][<]C[>][<]}{[>][<]C[>][<]}{[>][<]C[>][<]}{[>][<]C[>][<]}{[>][<]C=O[>][<]}{[>][<]O[>][<]}{[>][<]O[>][<]}{[>][<]C=O[>][<]}{[>][<]*C=O[>][]},O=C(C(=O)OOC(=O)CCCCCCCCCCCN(CCCCO[*]))[*].CC(C)O,[C][Branch1_1][C][C][=O].[C][O][C][Branch1_1][C][C][=O].[C][O][C].[C][N][C][C][C][C][C][C][C][C][C][C][C][C][Branch1_1][C][C][=O].[C][C][C][C][C][O][C].[C][C][Branch1_1][C][C][O],{[][<]*O[>][<]}{[>][<]C[>][<]}{[>][<]C[>][<]}{[>][<]C[>][<]}{[>][<]C[>][<]}{[>][<]N[>][<]}{[>][<]C[>][<]}{[>][<]C[>][<]}{[>][<]C[>][<]}{[>][<]C[>][<]}{[>][<]C[>][<]}{[>][<]C[>][<]}{[>][<]C[>][<]}{[>][<]C[>][<]}{[>][<]C[>][<]}{[>][<]C[>][<]}{[>][<]C[>][<]}{[>][<]C=O[>][<]}{[>][<]O[>][<]}{[>][<]O[>][<]}{[>][<]C=O[>][<]}{[>][<]*C=O[>][]}.CC(C)O
12,peba,89.0,100.0,ipa,23.5,90.0,30,6.7,0.2848,0.283636366,O=C(C(=O)OOC(=O)CCCCCCCCCCCN(CCCCO[*]))[*],CC(C)O,"[3, 14, 1, 3, 1, 0, 0, 1, 0, 0, 3, 0, 0, 0, 0]",[C][Branch1_1][C][C][=O].[C][O][C][Branch1_1][C][C][=O].[C][O][C].[C][N][C][C][C][C][C][C][C][C][C][C][C][C][Branch1_1][C][C][=O].[C][C][C][C][C][O][C],[C][C][Branch1_1][C][C][O],{[][<]*O[>][<]}{[>][<]C[>][<]}{[>][<]C[>][<]}{[>][<]C[>][<]}{[>][<]C[>][<]}{[>][<]N[>][<]}{[>][<]C[>][<]}{[>][<]C[>][<]}{[>][<]C[>][<]}{[>][<]C[>][<]}{[>][<]C[>][<]}{[>][<]C[>][<]}{[>][<]C[>][<]}{[>][<]C[>][<]}{[>][<]C[>][<]}{[>][<]C[>][<]}{[>][<]C[>][<]}{[>][<]C=O[>][<]}{[>][<]O[>][<]}{[>][<]O[>][<]}{[>][<]C=O[>][<]}{[>][<]*C=O[>][]},O=C(C(=O)OOC(=O)CCCCCCCCCCCN(CCCCO[*]))[*].CC(C)O,[C][Branch1_1][C][C][=O].[C][O][C][Branch1_1][C][C][=O].[C][O][C].[C][N][C][C][C][C][C][C][C][C][C][C][C][C][Branch1_1][C][C][=O].[C][C][C][C][C][O][C].[C][C][Branch1_1][C][C][O],{[][<]*O[>][<]}{[>][<]C[>][<]}{[>][<]C[>][<]}{[>][<]C[>][<]}{[>][<]C[>][<]}{[>][<]N[>][<]}{[>][<]C[>][<]}{[>][<]C[>][<]}{[>][<]C[>][<]}{[>][<]C[>][<]}{[>][<]C[>][<]}{[>][<]C[>][<]}{[>][<]C[>][<]}{[>][<]C[>][<]}{[>][<]C[>][<]}{[>][<]C[>][<]}{[>][<]C[>][<]}{[>][<]C=O[>][<]}{[>][<]O[>][<]}{[>][<]O[>][<]}{[>][<]C=O[>][<]}{[>][<]*C=O[>][]}.CC(C)O
13,peba,89.0,100.0,ipa,23.5,90.0,40,6.7,0.6345,0.220987638,O=C(C(=O)OOC(=O)CCCCCCCCCCCN(CCCCO[*]))[*],CC(C)O,"[3, 14, 1, 3, 1, 0, 0, 1, 0, 0, 3, 0, 0, 0, 0]",[C][Branch1_1][C][C][=O].[C][O][C][Branch1_1][C][C][=O].[C][O][C].[C][N][C][C][C][C][C][C][C][C][C][C][C][C][Branch1_1][C][C][=O].[C][C][C][C][C][O][C],[C][C][Branch1_1][C][C][O],{[][<]*O[>][<]}{[>][<]C[>][<]}{[>][<]C[>][<]}{[>][<]C[>][<]}{[>][<]C[>][<]}{[>][<]N[>][<]}{[>][<]C[>][<]}{[>][<]C[>][<]}{[>][<]C[>][<]}{[>][<]C[>][<]}{[>][<]C[>][<]}{[>][<]C[>][<]}{[>][<]C[>][<]}{[>][<]C[>][<]}{[>][<]C[>][<]}{[>][<]C[>][<]}{[>][<]C[>][<]}{[>][<]C=O[>][<]}{[>][<]O[>][<]}{[>][<]O[>][<]}{[>][<]C=O[>][<]}{[>][<]*C=O[>][]},O=C(C(=O)OOC(=O)CCCCCCCCCCCN(CCCCO[*]))[*].CC(C)O,[C][Branch1_1][C][C][=O].[C][O][C][Branch1_1][C][C][=O].[C][O][C].[C][N][C][C][C][C][C][C][C][C][C][C][C][C][Branch1_1][C][C][=O].[C][C][C][C][C][O][C].[C][C][Branch1_1][C][C][O],{[][<]*O[>][<]}{[>][<]C[>][<]}{[>][<]C[>][<]}{[>][<]C[>][<]}{[>][<]C[>][<]}{[>][<]N[>][<]}{[>][<]C[>][<]}{[>][<]C[>][<]}{[>][<]C[>][<]}{[>][<]C[>][<]}{[>][<]C[>][<]}{[>][<]C[>][<]}{[>][<]C[>][<]}{[>][<]C[>][<]}{[>][<]C[>][<]}{[>][<]C[>][<]}{[>][<]C[>][<]}{[>][<]C=O[>][<]}{[>][<]O[>][<]}{[>][<]O[>][<]}{[>][<]C=O[>][<]}{[>][<]*C=O[>][]}.CC(C)O
14,peba,89.0,100.0,ipa,23.5,90.0,50,6.7,1.1139,0.218292663,O=C(C(=O)OOC(=O)CCCCCCCCCCCN(CCCCO[*]))[*],CC(C)O,"[3, 14, 1, 3, 1, 0, 0, 1, 0, 0, 3, 0, 0, 0, 0]",[C][Branch1_1][C][C][=O].[C][O][C][Branch1_1][C][C][=O].[C][O][C].[C][N][C][C][C][C][C][C][C][C][C][C][C][C][Branch1_1][C][C][=O].[C][C][C][C][C][O][C],[C][C][Branch1_1][C][C][O],{[][<]*O[>][<]}{[>][<]C[>][<]}{[>][<]C[>][<]}{[>][<]C[>][<]}{[>][<]C[>][<]}{[>][<]N[>][<]}{[>][<]C[>][<]}{[>][<]C[>][<]}{[>][<]C[>][<]}{[>][<]C[>][<]}{[>][<]C[>][<]}{[>][<]C[>][<]}{[>][<]C[>][<]}{[>][<]C[>][<]}{[>][<]C[>][<]}{[>][<]C[>][<]}{[>][<]C[>][<]}{[>][<]C=O[>][<]}{[>][<]O[>][<]}{[>][<]O[>][<]}{[>][<]C=O[>][<]}{[>][<]*C=O[>][]},O=C(C(=O)OOC(=O)CCCCCCCCCCCN(CCCCO[*]))[*].CC(C)O,[C][Branch1_1][C][C][=O].[C][O][C][Branch1_1][C][C][=O].[C][O][C].[C][N][C][C][C][C][C][C][C][C][C][C][C][C][Branch1_1][C][C][=O].[C][C][C][C][C][O][C].[C][C][Branch1_1][C][C][O],{[][<]*O[>][<]}{[>][<]C[>][<]}{[>][<]C[>][<]}{[>][<]C[>][<]}{[>][<]C[>][<]}{[>][<]N[>][<]}{[>][<]C[>][<]}{[>][<]C[>][<]}{[>][<]C[>][<]}{[>][<]C[>][<]}{[>][<]C[>][<]}{[>][<]C[>][<]}{[>][<]C[>][<]}{[>][<]C[>][<]}{[>][<]C[>][<]}{[>][<]C[>][<]}{[>][<]C[>][<]}{[>][<]C=O[>][<]}{[>][<]O[>][<]}{[>][<]O[>][<]}{[>][<]C=O[>][<]}{[>][<]*C=O[>][]}.CC(C)O
15,peba,89.0,100.0,ipa,23.5,90.0,60,6.7,1.7387,0.192473108,O=C(C(=O)OOC(=O)CCCCCCCCCCCN(CCCCO[*]))[*],CC(C)O,"[3, 14, 1, 3, 1, 0, 0, 1, 0, 0, 3, 0, 0, 0, 0]",[C][Branch1_1][C][C][=O].[C][O][C][Branch1_1][C][C][=O].[C][O][C].[C][N][C][C][C][C][C][C][C][C][C][C][C][C][Branch1_1][C][C][=O].[C][C][C][C][C][O][C],[C][C][Branch1_1][C][C][O],{[][<]*O[>][<]}{[>][<]C[>][<]}{[>][<]C[>][<]}{[>][<]C[>][<]}{[>][<]C[>][<]}{[>][<]N[>][<]}{[>][<]C[>][<]}{[>][<]C[>][<]}{[>][<]C[>][<]}{[>][<]C[>][<]}{[>][<]C[>][<]}{[>][<]C[>][<]}{[>][<]C[>][<]}{[>][<]C[>][<]}{[>][<]C[>][<]}{[>][<]C[>][<]}{[>][<]C[>][<]}{[>][<]C=O[>][<]}{[>][<]O[>][<]}{[>][<]O[>][<]}{[>][<]C=O[>][<]}{[>][<]*C=O[>][]},O=C(C(=O)OOC(=O)CCCCCCCCCCCN(CCCCO[*]))[*].CC(C)O,[C][Branch1_1][C][C][=O].[C][O][C][Branch1_1][C][C][=O].[C][O][C].[C][N][C][C][C][C][C][C][C][C][C][C][C][C][Branch1_1][C][C][=O].[C][C][C][C][C][O][C].[C][C][Branch1_1][C][C][O],{[][<]*O[>][<]}{[>][<]C[>][<]}{[>][<]C[>][<]}{[>][<]C[>][<]}{[>][<]C[>][<]}{[>][<]N[>][<]}{[>][<]C[>][<]}{[>][<]C[>][<]}{[>][<]C[>][<]}{[>][<]C[>][<]}{[>][<]C[>][<]}{[>][<]C[>][<]}{[>][<]C[>][<]}{[>][<]C[>][<]}{[>][<]C[>][<]}{[>][<]C[>][<]}{[>][<]C[>][<]}{[>][<]C=O[>][<]}{[>][<]O[>][<]}{[>][<]O[>][<]}{[>][<]C=O[>][<]}{[>][<]*C=O[>][]}.CC(C)O
16,pbo,82.0,24.24,n-butanol,23.1,15.0,25,1.0,0.0201,1569.666667,FC(F)(F)C(c1ccc([*])cc1)(c6ccc(c5nc4ccc(c3ccc2nc([*])oc2c3)cc4o5)cc6)C(F)(F)F,CCCCO,"[1, 3, 0, 0, 1, 3, 0, 0, 2, 4, 0, 0, 0, 0, 2]",[F][C][Branch1_1][C][F][Branch1_1][C][F][C][Branch1_1][N][C][=C][C][=C][Branch1_1][C][C][C][=C][Ring1][Branch1_3][Branch2_1][Ring2][=N][C][=C][C][=C][Branch2_1][Ring1][P][C][=N][C][=C][C][=C][Branch1_1][P][C][=C][C][=C][N][=C][Branch1_1][C][C][O][C][Ring1][Branch1_2][=C][Ring1][Branch2_3][C][=C][Ring1][S][O][Ring2][Ring1][Ring1][C][=C][Ring2][Ring1][Branch2_2][C][Branch1_1][C][F][Branch1_1][C][F][F],[C][C][C][C][O],{[][<]*c1ccccc1[>][<]}{[>][<]FC(F)(F)CC(F)(F)F[>][<]}{[>][<]c1ccccc1[>][<]}{[>][<]c1ccc2ocnc2c1[>][<]}{[>][<]*c1nc2ccccc2o1[>][]},FC(F)(F)C(c1ccc([*])cc1)(c6ccc(c5nc4ccc(c3ccc2nc([*])oc2c3)cc4o5)cc6)C(F)(F)F.CCCCO,[F][C][Branch1_1][C][F][Branch1_1][C][F][C][Branch1_1][N][C][=C][C][=C][Branch1_1][C][C][C][=C][Ring1][Branch1_3][Branch2_1][Ring2][=N][C][=C][C][=C][Branch2_1][Ring1][P][C][=N][C][=C][C][=C][Branch1_1][P][C][=C][C][=C][N][=C][Branch1_1][C][C][O][C][Ring1][Branch1_2][=C][Ring1][Branch2_3][C][=C][Ring1][S][O][Ring2][Ring1][Ring1][C][=C][Ring2][Ring1][Branch2_2][C][Branch1_1][C][F][Branch1_1][C][F][F].[C][C][C][C][O],{[][<]*c1ccccc1[>][<]}{[>][<]FC(F)(F)CC(F)(F)F[>][<]}{[>][<]c1ccccc1[>][<]}{[>][<]c1ccc2ocnc2c1[>][<]}{[>][<]*c1nc2ccccc2o1[>][]}.CCCCO
17,pbo,82.0,24.24,ipa,23.5,15.0,25,1.0,0.0245,1569.666667,FC(F)(F)C(c1ccc([*])cc1)(c6ccc(c5nc4ccc(c3ccc2nc([*])oc2c3)cc4o5)cc6)C(F)(F)F,CC(C)O,"[2, 0, 1, 0, 1, 3, 0, 0, 2, 4, 0, 0, 0, 0, 2]",[F][C][Branch1_1][C][F][Branch1_1][C][F][C][Branch1_1][N][C][=C][C][=C][Branch1_1][C][C][C][=C][Ring1][Branch1_3][Branch2_1][Ring2][=N][C][=C][C][=C][Branch2_1][Ring1][P][C][=N][C][=C][C][=C][Branch1_1][P][C][=C][C][=C][N][=C][Branch1_1][C][C][O][C][Ring1][Branch1_2][=C][Ring1][Branch2_3][C][=C][Ring1][S][O][Ring2][Ring1][Ring1][C][=C][Ring2][Ring1][Branch2_2][C][Branch1_1][C][F][Branch1_1][C][F][F],[C][C][Branch1_1][C][C][O],{[][<]*c1ccccc1[>][<]}{[>][<]FC(F)(F)CC(F)(F)F[>][<]}{[>][<]c1ccccc1[>][<]}{[>][<]c1ccc2ocnc2c1[>][<]}{[>][<]*c1nc2ccccc2o1[>][]},FC(F)(F)C(c1ccc([*])cc1)(c6ccc(c5nc4ccc(c3ccc2nc([*])oc2c3)cc4o5)cc6)C(F)(F)F.CC(C)O,[F][C][Branch1_1][C][F][Branch1_1][C][F][C][Branch1_1][N][C][=C][C][=C][Branch1_1][C][C][C][=C][Ring1][Branch1_3][Branch2_1][Ring2][=N][C][=C][C][=C][Branch2_1][Ring1][P][C][=N][C][=C][C][=C][Branch1_1][P][C][=C][C][=C][N][=C][Branch1_1][C][C][O][C][Ring1][Branch1_2][=C][Ring1][Branch2_3][C][=C][Ring1][S][O][Ring2][Ring1][Ring1][C][=C][Ring2][Ring1][Branch2_2][C][Branch1_1][C][F][Branch1_1][C][F][F].[C][C][Branch1_1][C][C][O],{[][<]*c1ccccc1[>][<]}{[>][<]FC(F)(F)CC(F)(F)F[>][<]}{[>][<]c1ccccc1[>][<]}{[>][<]c1ccc2ocnc2c1[>][<]}{[>][<]*c1nc2ccccc2o1[>][]}.CC(C)O
18,pbo,82.0,24.24,ethanol,26.5,5.0,25,1.0,0.0324,77.917431,FC(F)(F)C(c1ccc([*])cc1)(c6ccc(c5nc4ccc(c3ccc2nc([*])oc2c3)cc4o5)cc6)C(F)(F)F,CCO,"[1, 1, 0, 0, 1, 3, 0, 0, 2, 4, 0, 0, 0, 0, 2]",[F][C][Branch1_1][C][F][Branch1_1][C][F][C][Branch1_1][N][C][=C][C][=C][Branch1_1][C][C][C][=C][Ring1][Branch1_3][Branch2_1][Ring2][=N][C][=C][C][=C][Branch2_1][Ring1][P][C][=N][C][=C][C][=C][Branch1_1][P][C][=C][C][=C][N][=C][Branch1_1][C][C][O][C][Ring1][Branch1_2][=C][Ring1][Branch2_3][C][=C][Ring1][S][O][Ring2][Ring1][Ring1][C][=C][Ring2][Ring1][Branch2_2][C][Branch1_1][C][F][Branch1_1][C][F][F],[C][C][O],{[][<]*c1ccccc1[>][<]}{[>][<]FC(F)(F)CC(F)(F)F[>][<]}{[>][<]c1ccccc1[>][<]}{[>][<]c1ccc2ocnc2c1[>][<]}{[>][<]*c1nc2ccccc2o1[>][]},FC(F)(F)C(c1ccc([*])cc1)(c6ccc(c5nc4ccc(c3ccc2nc([*])oc2c3)cc4o5)cc6)C(F)(F)F.CCO,[F][C][Branch1_1][C][F][Branch1_1][C][F][C][Branch1_1][N][C][=C][C][=C][Branch1_1][C][C][C][=C][Ring1][Branch1_3][Branch2_1][Ring2][=N][C][=C][C][=C][Branch2_1][Ring1][P][C][=N][C][=C][C][=C][Branch1_1][P][C][=C][C][=C][N][=C][Branch1_1][C][C][O][C][Ring1][Branch1_2][=C][Ring1][Branch2_3][C][=C][Ring1][S][O][Ring2][Ring1][Ring1][C][=C][Ring2][Ring1][Branch2_2][C][Branch1_1][C][F][Branch1_1][C][F][F].[C][C][O],{[][<]*c1ccccc1[>][<]}{[>][<]FC(F)(F)CC(F)(F)F[>][<]}{[>][<]c1ccccc1[>][<]}{[>][<]c1ccc2ocnc2c1[>][<]}{[>][<]*c1nc2ccccc2o1[>][]}.CCO