Index,Polymer,Contact_angle,Thickness_um,Solvent,Solvent_solubility_parameter_Mpa_sqrt,xw_wt_percent,Temp_C,Permeate_pressure_mbar,J_Total_flux_kg_m_2h_1,a_Separation_factor_wo,Polymer_SMILES,Solvent_SMILES,Sum_of_frags,Polymer_SELFIES,Solvent_SELFIES,Polymer_BigSMILES,PS_SMILES,PS_SELFIES,PS_BigSMILES
210,pva,74.0,1.8,ipa,23.5,10.0,45,1.0,0.4788,511.627907,C(*)C(*)(O),CC(C)O,"[2, 1, 2, 0, 2, 0, 0, 0, 0, 0, 0, 0, 0, 0, 0]",[C][Branch1_1][C][C][C][Branch1_1][C][C][Branch1_1][C][O],[C][C][Branch1_1][C][C][O],{[][<]*C[>][<]}{[>][<]*CO[>][]},C(*)C(*)(O).CC(C)O,[C][Branch1_1][C][C][C][Branch1_1][C][C][Branch1_1][C][O].[C][C][Branch1_1][C][C][O],{[][<]*C[>][<]}{[>][<]*CO[>][]}.CC(C)O
211,pva,74.0,1.8,n-butanol,23.1,10.0,45,1.0,0.624,573.023256,C(*)C(*)(O),CCCCO,"[1, 4, 1, 0, 2, 0, 0, 0, 0, 0, 0, 0, 0, 0, 0]",[C][Branch1_1][C][C][C][Branch1_1][C][C][Branch1_1][C][O],[C][C][C][C][O],{[][<]*C[>][<]}{[>][<]*CO[>][]},C(*)C(*)(O).CCCCO,[C][Branch1_1][C][C][C][Branch1_1][C][C][Branch1_1][C][O].[C][C][C][C][O],{[][<]*C[>][<]}{[>][<]*CO[>][]}.CCCCO
212,ptmsp,100.0,20.0,n-butanol,23.1,99.0,25,2.7,0.0809,0.01393,C/C(*)=C(*)/[Si](C)(C)C,CCCCO,"[5, 3, 0, 0, 1, 0, 0, 0, 0, 0, 0, 1, 0, 1, 0]",[C][/C][Branch1_1][C][C][=C][Branch1_1][C][C][/Siexpl][Branch1_1][C][C][Branch1_1][C][C][C],[C][C][C][C][O],{[][<]*CC[>][<]}{[>][<]*C[Si](C)(C)C[>][]},C/C(*)=C(*)/[Si](C)(C)C.CCCCO,[C][/C][Branch1_1][C][C][=C][Branch1_1][C][C][/Siexpl][Branch1_1][C][C][Branch1_1][C][C][C].[C][C][C][C][O],{[][<]*CC[>][<]}{[>][<]*C[Si](C)(C)C[>][]}.CCCCO
215,ptmsp,100.0,20.0,n-butanol,23.1,97.5,25,2.7,0.1329,0.012174,C/C(*)=C(*)/[Si](C)(C)C,CCCCO,"[5, 3, 0, 0, 1, 0, 0, 0, 0, 0, 0, 1, 0, 1, 0]",[C][/C][Branch1_1][C][C][=C][Branch1_1][C][C][/Siexpl][Branch1_1][C][C][Branch1_1][C][C][C],[C][C][C][C][O],{[][<]*CC[>][<]}{[>][<]*C[Si](C)(C)C[>][]},C/C(*)=C(*)/[Si](C)(C)C.CCCCO,[C][/C][Branch1_1][C][C][=C][Branch1_1][C][C][/Siexpl][Branch1_1][C][C][Branch1_1][C][C][C].[C][C][C][C][O],{[][<]*CC[>][<]}{[>][<]*C[Si](C)(C)C[>][]}.CCCCO
216,ptmsp,100.0,20.0,n-butanol,23.1,97.0,25,2.7,0.1596,0.012444,C/C(*)=C(*)/[Si](C)(C)C,CCCCO,"[5, 3, 0, 0, 1, 0, 0, 0, 0, 0, 0, 1, 0, 1, 0]",[C][/C][Branch1_1][C][C][=C][Branch1_1][C][C][/Siexpl][Branch1_1][C][C][Branch1_1][C][C][C],[C][C][C][C][O],{[][<]*CC[>][<]}{[>][<]*C[Si](C)(C)C[>][]},C/C(*)=C(*)/[Si](C)(C)C.CCCCO,[C][/C][Branch1_1][C][C][=C][Branch1_1][C][C][/Siexpl][Branch1_1][C][C][Branch1_1][C][C][C].[C][C][C][C][O],{[][<]*CC[>][<]}{[>][<]*C[Si](C)(C)C[>][]}.CCCCO
217,ptmsp,100.0,20.0,n-butanol,23.1,96.5,25,2.7,0.2003,0.012227,C/C(*)=C(*)/[Si](C)(C)C,CCCCO,"[5, 3, 0, 0, 1, 0, 0, 0, 0, 0, 0, 1, 0, 1, 0]",[C][/C][Branch1_1][C][C][=C][Branch1_1][C][C][/Siexpl][Branch1_1][C][C][Branch1_1][C][C][C],[C][C][C][C][O],{[][<]*CC[>][<]}{[>][<]*C[Si](C)(C)C[>][]},C/C(*)=C(*)/[Si](C)(C)C.CCCCO,[C][/C][Branch1_1][C][C][=C][Branch1_1][C][C][/Siexpl][Branch1_1][C][C][Branch1_1][C][C][C].[C][C][C][C][O],{[][<]*CC[>][<]}{[>][<]*C[Si](C)(C)C[>][]}.CCCCO
219,ptmsp,100.0,20.0,n-butanol,23.1,95.5,25,2.7,0.2972,0.012069,C/C(*)=C(*)/[Si](C)(C)C,CCCCO,"[5, 3, 0, 0, 1, 0, 0, 0, 0, 0, 0, 1, 0, 1, 0]",[C][/C][Branch1_1][C][C][=C][Branch1_1][C][C][/Siexpl][Branch1_1][C][C][Branch1_1][C][C][C],[C][C][C][C][O],{[][<]*CC[>][<]}{[>][<]*C[Si](C)(C)C[>][]},C/C(*)=C(*)/[Si](C)(C)C.CCCCO,[C][/C][Branch1_1][C][C][=C][Branch1_1][C][C][/Siexpl][Branch1_1][C][C][Branch1_1][C][C][C].[C][C][C][C][O],{[][<]*CC[>][<]}{[>][<]*C[Si](C)(C)C[>][]}.CCCCO
220,ptmsp,100.0,20.0,n-butanol,23.1,95.0,25,2.7,0.3646,0.011864,C/C(*)=C(*)/[Si](C)(C)C,CCCCO,"[5, 3, 0, 0, 1, 0, 0, 0, 0, 0, 0, 1, 0, 1, 0]",[C][/C][Branch1_1][C][C][=C][Branch1_1][C][C][/Siexpl][Branch1_1][C][C][Branch1_1][C][C][C],[C][C][C][C][O],{[][<]*CC[>][<]}{[>][<]*C[Si](C)(C)C[>][]},C/C(*)=C(*)/[Si](C)(C)C.CCCCO,[C][/C][Branch1_1][C][C][=C][Branch1_1][C][C][/Siexpl][Branch1_1][C][C][Branch1_1][C][C][C].[C][C][C][C][O],{[][<]*CC[>][<]}{[>][<]*C[Si](C)(C)C[>][]}.CCCCO
221,ptmsp,100.0,20.0,n-butanol,23.1,94.5,25,2.7,0.4348,0.011667,C/C(*)=C(*)/[Si](C)(C)C,CCCCO,"[5, 3, 0, 0, 1, 0, 0, 0, 0, 0, 0, 1, 0, 1, 0]",[C][/C][Branch1_1][C][C][=C][Branch1_1][C][C][/Siexpl][Branch1_1][C][C][Branch1_1][C][C][C],[C][C][C][C][O],{[][<]*CC[>][<]}{[>][<]*C[Si](C)(C)C[>][]},C/C(*)=C(*)/[Si](C)(C)C.CCCCO,[C][/C][Branch1_1][C][C][=C][Branch1_1][C][C][/Siexpl][Branch1_1][C][C][Branch1_1][C][C][C].[C][C][C][C][O],{[][<]*CC[>][<]}{[>][<]*C[Si](C)(C)C[>][]}.CCCCO
223,ptmsp,100.0,22.0,n-butanol,23.1,99.0,25,2.7,0.06,0.019231,C/C(*)=C(*)/[Si](C)(C)C,CCCCO,"[5, 3, 0, 0, 1, 0, 0, 0, 0, 0, 0, 1, 0, 1, 0]",[C][/C][Branch1_1][C][C][=C][Branch1_1][C][C][/Siexpl][Branch1_1][C][C][Branch1_1][C][C][C],[C][C][C][C][O],{[][<]*CC[>][<]}{[>][<]*C[Si](C)(C)C[>][]},C/C(*)=C(*)/[Si](C)(C)C.CCCCO,[C][/C][Branch1_1][C][C][=C][Branch1_1][C][C][/Siexpl][Branch1_1][C][C][Branch1_1][C][C][C].[C][C][C][C][O],{[][<]*CC[>][<]}{[>][<]*C[Si](C)(C)C[>][]}.CCCCO
224,ptmsp,100.0,22.0,n-butanol,23.1,98.5,25,2.7,0.06,0.018182,C/C(*)=C(*)/[Si](C)(C)C,CCCCO,"[5, 3, 0, 0, 1, 0, 0, 0, 0, 0, 0, 1, 0, 1, 0]",[C][/C][Branch1_1][C][C][=C][Branch1_1][C][C][/Siexpl][Branch1_1][C][C][Branch1_1][C][C][C],[C][C][C][C][O],{[][<]*CC[>][<]}{[>][<]*C[Si](C)(C)C[>][]},C/C(*)=C(*)/[Si](C)(C)C.CCCCO,[C][/C][Branch1_1][C][C][=C][Branch1_1][C][C][/Siexpl][Branch1_1][C][C][Branch1_1][C][C][C].[C][C][C][C][O],{[][<]*CC[>][<]}{[>][<]*C[Si](C)(C)C[>][]}.CCCCO
225,ptmsp,100.0,22.0,n-butanol,23.1,99.5,25,2.7,0.078,0.012821,C/C(*)=C(*)/[Si](C)(C)C,CCCCO,"[5, 3, 0, 0, 1, 0, 0, 0, 0, 0, 0, 1, 0, 1, 0]",[C][/C][Branch1_1][C][C][=C][Branch1_1][C][C][/Siexpl][Branch1_1][C][C][Branch1_1][C][C][C],[C][C][C][C][O],{[][<]*CC[>][<]}{[>][<]*C[Si](C)(C)C[>][]},C/C(*)=C(*)/[Si](C)(C)C.CCCCO,[C][/C][Branch1_1][C][C][=C][Branch1_1][C][C][/Siexpl][Branch1_1][C][C][Branch1_1][C][C][C].[C][C][C][C][O],{[][<]*CC[>][<]}{[>][<]*C[Si](C)(C)C[>][]}.CCCCO
226,ptmsp,100.0,22.0,n-butanol,23.1,99.7,25,2.7,0.124,0.019608,C/C(*)=C(*)/[Si](C)(C)C,CCCCO,"[5, 3, 0, 0, 1, 0, 0, 0, 0, 0, 0, 1, 0, 1, 0]",[C][/C][Branch1_1][C][C][=C][Branch1_1][C][C][/Siexpl][Branch1_1][C][C][Branch1_1][C][C][C],[C][C][C][C][O],{[][<]*CC[>][<]}{[>][<]*C[Si](C)(C)C[>][]},C/C(*)=C(*)/[Si](C)(C)C.CCCCO,[C][/C][Branch1_1][C][C][=C][Branch1_1][C][C][/Siexpl][Branch1_1][C][C][Branch1_1][C][C][C].[C][C][C][C][O],{[][<]*CC[>][<]}{[>][<]*C[Si](C)(C)C[>][]}.CCCCO
227,ptmsp,100.0,22.0,n-butanol,23.1,94.0,25,2.7,0.436,0.016393,C/C(*)=C(*)/[Si](C)(C)C,CCCCO,"[5, 3, 0, 0, 1, 0, 0, 0, 0, 0, 0, 1, 0, 1, 0]",[C][/C][Branch1_1][C][C][=C][Branch1_1][C][C][/Siexpl][Branch1_1][C][C][Branch1_1][C][C][C],[C][C][C][C][O],{[][<]*CC[>][<]}{[>][<]*C[Si](C)(C)C[>][]},C/C(*)=C(*)/[Si](C)(C)C.CCCCO,[C][/C][Branch1_1][C][C][=C][Branch1_1][C][C][/Siexpl][Branch1_1][C][C][Branch1_1][C][C][C].[C][C][C][C][O],{[][<]*CC[>][<]}{[>][<]*C[Si](C)(C)C[>][]}.CCCCO
229,ptmsp,100.0,22.0,n-butanol,23.1,99.5,70,2.7,0.831,0.016129,C/C(*)=C(*)/[Si](C)(C)C,CCCCO,"[5, 3, 0, 0, 1, 0, 0, 0, 0, 0, 0, 1, 0, 1, 0]",[C][/C][Branch1_1][C][C][=C][Branch1_1][C][C][/Siexpl][Branch1_1][C][C][Branch1_1][C][C][C],[C][C][C][C][O],{[][<]*CC[>][<]}{[>][<]*C[Si](C)(C)C[>][]},C/C(*)=C(*)/[Si](C)(C)C.CCCCO,[C][/C][Branch1_1][C][C][=C][Branch1_1][C][C][/Siexpl][Branch1_1][C][C][Branch1_1][C][C][C].[C][C][C][C][O],{[][<]*CC[>][<]}{[>][<]*C[Si](C)(C)C[>][]}.CCCCO
231,ptmsp,100.0,22.0,n-butanol,23.1,98.5,70,2.7,1.03,0.014286,C/C(*)=C(*)/[Si](C)(C)C,CCCCO,"[5, 3, 0, 0, 1, 0, 0, 0, 0, 0, 0, 1, 0, 1, 0]",[C][/C][Branch1_1][C][C][=C][Branch1_1][C][C][/Siexpl][Branch1_1][C][C][Branch1_1][C][C][C],[C][C][C][C][O],{[][<]*CC[>][<]}{[>][<]*C[Si](C)(C)C[>][]},C/C(*)=C(*)/[Si](C)(C)C.CCCCO,[C][/C][Branch1_1][C][C][=C][Branch1_1][C][C][/Siexpl][Branch1_1][C][C][Branch1_1][C][C][C].[C][C][C][C][O],{[][<]*CC[>][<]}{[>][<]*C[Si](C)(C)C[>][]}.CCCCO
232,ptmsp,100.0,22.0,n-butanol,23.1,94.0,70,2.7,1.512,0.02439,C/C(*)=C(*)/[Si](C)(C)C,CCCCO,"[5, 3, 0, 0, 1, 0, 0, 0, 0, 0, 0, 1, 0, 1, 0]",[C][/C][Branch1_1][C][C][=C][Branch1_1][C][C][/Siexpl][Branch1_1][C][C][Branch1_1][C][C][C],[C][C][C][C][O],{[][<]*CC[>][<]}{[>][<]*C[Si](C)(C)C[>][]},C/C(*)=C(*)/[Si](C)(C)C.CCCCO,[C][/C][Branch1_1][C][C][=C][Branch1_1][C][C][/Siexpl][Branch1_1][C][C][Branch1_1][C][C][C].[C][C][C][C][O],{[][<]*CC[>][<]}{[>][<]*C[Si](C)(C)C[>][]}.CCCCO
233,torlon,87.5,50.0,ipa,23.5,15.0,60,1.0,0.0082,2828.0,[*]c7cccc(NC(=O)c6ccc5c(=O)n(c4ccc(Oc3ccc(NC(=O)c2ccc1c(=O)n(*)c(=O)c1c2)cc3)cc4)c(=O)c5c6)c7,CC(C)O,"[2, 0, 1, 6, 1, 0, 0, 2, 2, 5, 1, 0, 0, 0, 0]",[O][=C][Branch2_1][Ring1][Branch2_1][N][C][=C][C][=C][Branch1_1][=N][O][C][=C][C][=C][Branch1_1][C][C][C][=C][Ring1][Branch1_3][C][=C][Ring1][=C][C][=C][C][=C][C][Branch1_2][C][=O][N][Branch1_1][C][C][C][Branch1_2][C][=O][C][Ring1][Branch2_1][=C][Ring1][N].[O][=C][Branch1_1][=N][N][C][=C][C][=C][C][Branch1_1][C][C][=C][Ring1][Branch1_3][C][=C][C][=C][C][Branch1_2][C][=O][N][Branch1_1][C][C][C][Branch1_2][C][=O][C][Ring1][Branch2_1][=C][Ring1][N],[C][C][Branch1_1][C][C][O],{[][<]*c1ccccc1[>][<]}{[>][<]N[>][<]}{[>][<]C=O[>][<]}{[>][<]O=C1NC(=O)c2ccccc21[>][<]}{[>][<]c1ccccc1[>][<]}{[>][<]O[>][<]}{[>][<]c1ccccc1[>][<]}{[>][<]N[>][<]}{[>][<]C=O[>][<]}{[>][<]*N1C(=O)c2ccccc2C1=O[>][]},[*]c7cccc(NC(=O)c6ccc5c(=O)n(c4ccc(Oc3ccc(NC(=O)c2ccc1c(=O)n(*)c(=O)c1c2)cc3)cc4)c(=O)c5c6)c7.CC(C)O,[O][=C][Branch2_1][Ring1][Branch2_1][N][C][=C][C][=C][Branch1_1][=N][O][C][=C][C][=C][Branch1_1][C][C][C][=C][Ring1][Branch1_3][C][=C][Ring1][=C][C][=C][C][=C][C][Branch1_2][C][=O][N][Branch1_1][C][C][C][Branch1_2][C][=O][C][Ring1][Branch2_1][=C][Ring1][N].[O][=C][Branch1_1][=N][N][C][=C][C][=C][C][Branch1_1][C][C][=C][Ring1][Branch1_3][C][=C][C][=C][C][Branch1_2][C][=O][N][Branch1_1][C][C][C][Branch1_2][C][=O][C][Ring1][Branch2_1][=C][Ring1][N].[C][C][Branch1_1][C][C][O],{[][<]*c1ccccc1[>][<]}{[>][<]N[>][<]}{[>][<]C=O[>][<]}{[>][<]O=C1NC(=O)c2ccccc21[>][<]}{[>][<]c1ccccc1[>][<]}{[>][<]O[>][<]}{[>][<]c1ccccc1[>][<]}{[>][<]N[>][<]}{[>][<]C=O[>][<]}{[>][<]*N1C(=O)c2ccccc2C1=O[>][]}.CC(C)O
234,torlon,87.5,50.0,ethanol,26.5,15.0,60,1.0,0.0085,2155.0,[*]c7cccc(NC(=O)c6ccc5c(=O)n(c4ccc(Oc3ccc(NC(=O)c2ccc1c(=O)n(*)c(=O)c1c2)cc3)cc4)c(=O)c5c6)c7,CCO,"[1, 1, 0, 6, 1, 0, 0, 2, 2, 5, 1, 0, 0, 0, 0]",[O][=C][Branch2_1][Ring1][Branch2_1][N][C][=C][C][=C][Branch1_1][=N][O][C][=C][C][=C][Branch1_1][C][C][C][=C][Ring1][Branch1_3][C][=C][Ring1][=C][C][=C][C][=C][C][Branch1_2][C][=O][N][Branch1_1][C][C][C][Branch1_2][C][=O][C][Ring1][Branch2_1][=C][Ring1][N].[O][=C][Branch1_1][=N][N][C][=C][C][=C][C][Branch1_1][C][C][=C][Ring1][Branch1_3][C][=C][C][=C][C][Branch1_2][C][=O][N][Branch1_1][C][C][C][Branch1_2][C][=O][C][Ring1][Branch2_1][=C][Ring1][N],[C][C][O],{[][<]*c1ccccc1[>][<]}{[>][<]N[>][<]}{[>][<]C=O[>][<]}{[>][<]O=C1NC(=O)c2ccccc21[>][<]}{[>][<]c1ccccc1[>][<]}{[>][<]O[>][<]}{[>][<]c1ccccc1[>][<]}{[>][<]N[>][<]}{[>][<]C=O[>][<]}{[>][<]*N1C(=O)c2ccccc2C1=O[>][]},[*]c7cccc(NC(=O)c6ccc5c(=O)n(c4ccc(Oc3ccc(NC(=O)c2ccc1c(=O)n(*)c(=O)c1c2)cc3)cc4)c(=O)c5c6)c7.CCO,[O][=C][Branch2_1][Ring1][Branch2_1][N][C][=C][C][=C][Branch1_1][=N][O][C][=C][C][=C][Branch1_1][C][C][C][=C][Ring1][Branch1_3][C][=C][Ring1][=C][C][=C][C][=C][C][Branch1_2][C][=O][N][Branch1_1][C][C][C][Branch1_2][C][=O][C][Ring1][Branch2_1][=C][Ring1][N].[O][=C][Branch1_1][=N][N][C][=C][C][=C][C][Branch1_1][C][C][=C][Ring1][Branch1_3][C][=C][C][=C][C][Branch1_2][C][=O][N][Branch1_1][C][C][C][Branch1_2][C][=O][C][Ring1][Branch2_1][=C][Ring1][N].[C][C][O],{[][<]*c1ccccc1[>][<]}{[>][<]N[>][<]}{[>][<]C=O[>][<]}{[>][<]O=C1NC(=O)c2ccccc21[>][<]}{[>][<]c1ccccc1[>][<]}{[>][<]O[>][<]}{[>][<]c1ccccc1[>][<]}{[>][<]N[>][<]}{[>][<]C=O[>][<]}{[>][<]*N1C(=O)c2ccccc2C1=O[>][]}.CCO
235,torlon,87.5,50.0,n-butanol,23.1,15.0,60,1.0,0.0113,5661.0,[*]c7cccc(NC(=O)c6ccc5c(=O)n(c4ccc(Oc3ccc(NC(=O)c2ccc1c(=O)n(*)c(=O)c1c2)cc3)cc4)c(=O)c5c6)c7,CCCCO,"[1, 3, 0, 6, 1, 0, 0, 2, 2, 5, 1, 0, 0, 0, 0]",[O][=C][Branch2_1][Ring1][Branch2_1][N][C][=C][C][=C][Branch1_1][=N][O][C][=C][C][=C][Branch1_1][C][C][C][=C][Ring1][Branch1_3][C][=C][Ring1][=C][C][=C][C][=C][C][Branch1_2][C][=O][N][Branch1_1][C][C][C][Branch1_2][C][=O][C][Ring1][Branch2_1][=C][Ring1][N].[O][=C][Branch1_1][=N][N][C][=C][C][=C][C][Branch1_1][C][C][=C][Ring1][Branch1_3][C][=C][C][=C][C][Branch1_2][C][=O][N][Branch1_1][C][C][C][Branch1_2][C][=O][C][Ring1][Branch2_1][=C][Ring1][N],[C][C][C][C][O],{[][<]*c1ccccc1[>][<]}{[>][<]N[>][<]}{[>][<]C=O[>][<]}{[>][<]O=C1NC(=O)c2ccccc21[>][<]}{[>][<]c1ccccc1[>][<]}{[>][<]O[>][<]}{[>][<]c1ccccc1[>][<]}{[>][<]N[>][<]}{[>][<]C=O[>][<]}{[>][<]*N1C(=O)c2ccccc2C1=O[>][]},[*]c7cccc(NC(=O)c6ccc5c(=O)n(c4ccc(Oc3ccc(NC(=O)c2ccc1c(=O)n(*)c(=O)c1c2)cc3)cc4)c(=O)c5c6)c7.CCCCO,[O][=C][Branch2_1][Ring1][Branch2_1][N][C][=C][C][=C][Branch1_1][=N][O][C][=C][C][=C][Branch1_1][C][C][C][=C][Ring1][Branch1_3][C][=C][Ring1][=C][C][=C][C][=C][C][Branch1_2][C][=O][N][Branch1_1][C][C][C][Branch1_2][C][=O][C][Ring1][Branch2_1][=C][Ring1][N].[O][=C][Branch1_1][=N][N][C][=C][C][=C][C][Branch1_1][C][C][=C][Ring1][Branch1_3][C][=C][C][=C][C][Branch1_2][C][=O][N][Branch1_1][C][C][C][Branch1_2][C][=O][C][Ring1][Branch2_1][=C][Ring1][N].[C][C][C][C][O],{[][<]*c1ccccc1[>][<]}{[>][<]N[>][<]}{[>][<]C=O[>][<]}{[>][<]O=C1NC(=O)c2ccccc21[>][<]}{[>][<]c1ccccc1[>][<]}{[>][<]O[>][<]}{[>][<]c1ccccc1[>][<]}{[>][<]N[>][<]}{[>][<]C=O[>][<]}{[>][<]*N1C(=O)c2ccccc2C1=O[>][]}.CCCCO
236,p84,82.3,50.0,ipa,23.5,15.0,60,1.0,0.0152,5661.0,Cc1cc(c7ccc(Cc6ccc([*])cc6)cc7)ccc1n5c(=O)c4ccc(C(=O)c3ccc2c(=O)n([*])c(=O)c2c3)cc4c5=O,CC(C)O,"[3, 1, 1, 5, 1, 0, 0, 0, 2, 5, 0, 0, 0, 0, 0]",[C][C][=C][C][=C][Branch1_1][=N][C][C][=C][C][=C][Branch1_1][C][C][C][=C][Ring1][Branch1_3][C][=C][Ring1][=C].[C][C][=C][C][Branch1_1][C][C][=C][C][=C][Ring1][Branch1_3][N][C][Branch1_2][C][=O][C][=C][C][=C][Branch2_1][Ring1][O][C][Branch1_2][C][=O][C][=C][C][=C][C][Branch1_2][C][=O][N][Branch1_1][C][C][C][Branch1_2][C][=O][C][Ring1][Branch2_1][=C][Ring1][N][C][=C][Ring2][Ring1][Ring2][C][Ring2][Ring1][Branch2_1][=O],[C][C][Branch1_1][C][C][O],{[][<]*c1ccccc1[>][<]}{[>][<]C[>][<]}{[>][<]c1ccccc1[>][<]}{[>][<]Cc1ccccc1[>][<]}{[>][<]O=C1NC(=O)c2ccccc21[>][<]}{[>][<]C=O[>][<]}{[>][<]*N1C(=O)c2ccccc2C1=O[>][]},Cc1cc(c7ccc(Cc6ccc([*])cc6)cc7)ccc1n5c(=O)c4ccc(C(=O)c3ccc2c(=O)n([*])c(=O)c2c3)cc4c5=O.CC(C)O,[C][C][=C][C][=C][Branch1_1][=N][C][C][=C][C][=C][Branch1_1][C][C][C][=C][Ring1][Branch1_3][C][=C][Ring1][=C].[C][C][=C][C][Branch1_1][C][C][=C][C][=C][Ring1][Branch1_3][N][C][Branch1_2][C][=O][C][=C][C][=C][Branch2_1][Ring1][O][C][Branch1_2][C][=O][C][=C][C][=C][C][Branch1_2][C][=O][N][Branch1_1][C][C][C][Branch1_2][C][=O][C][Ring1][Branch2_1][=C][Ring1][N][C][=C][Ring2][Ring1][Ring2][C][Ring2][Ring1][Branch2_1][=O].[C][C][Branch1_1][C][C][O],{[][<]*c1ccccc1[>][<]}{[>][<]C[>][<]}{[>][<]c1ccccc1[>][<]}{[>][<]Cc1ccccc1[>][<]}{[>][<]O=C1NC(=O)c2ccccc21[>][<]}{[>][<]C=O[>][<]}{[>][<]*N1C(=O)c2ccccc2C1=O[>][]}.CC(C)O
237,p84,82.3,50.0,n-butanol,23.1,15.0,60,1.0,0.018,5661.0,Cc1cc(c7ccc(Cc6ccc([*])cc6)cc7)ccc1n5c(=O)c4ccc(C(=O)c3ccc2c(=O)n([*])c(=O)c2c3)cc4c5=O,CCCCO,"[2, 4, 0, 5, 1, 0, 0, 0, 2, 5, 0, 0, 0, 0, 0]",[C][C][=C][C][=C][Branch1_1][=N][C][C][=C][C][=C][Branch1_1][C][C][C][=C][Ring1][Branch1_3][C][=C][Ring1][=C].[C][C][=C][C][Branch1_1][C][C][=C][C][=C][Ring1][Branch1_3][N][C][Branch1_2][C][=O][C][=C][C][=C][Branch2_1][Ring1][O][C][Branch1_2][C][=O][C][=C][C][=C][C][Branch1_2][C][=O][N][Branch1_1][C][C][C][Branch1_2][C][=O][C][Ring1][Branch2_1][=C][Ring1][N][C][=C][Ring2][Ring1][Ring2][C][Ring2][Ring1][Branch2_1][=O],[C][C][C][C][O],{[][<]*c1ccccc1[>][<]}{[>][<]C[>][<]}{[>][<]c1ccccc1[>][<]}{[>][<]Cc1ccccc1[>][<]}{[>][<]O=C1NC(=O)c2ccccc21[>][<]}{[>][<]C=O[>][<]}{[>][<]*N1C(=O)c2ccccc2C1=O[>][]},Cc1cc(c7ccc(Cc6ccc([*])cc6)cc7)ccc1n5c(=O)c4ccc(C(=O)c3ccc2c(=O)n([*])c(=O)c2c3)cc4c5=O.CCCCO,[C][C][=C][C][=C][Branch1_1][=N][C][C][=C][C][=C][Branch1_1][C][C][C][=C][Ring1][Branch1_3][C][=C][Ring1][=C].[C][C][=C][C][Branch1_1][C][C][=C][C][=C][Ring1][Branch1_3][N][C][Branch1_2][C][=O][C][=C][C][=C][Branch2_1][Ring1][O][C][Branch1_2][C][=O][C][=C][C][=C][C][Branch1_2][C][=O][N][Branch1_1][C][C][C][Branch1_2][C][=O][C][Ring1][Branch2_1][=C][Ring1][N][C][=C][Ring2][Ring1][Ring2][C][Ring2][Ring1][Branch2_1][=O].[C][C][C][C][O],{[][<]*c1ccccc1[>][<]}{[>][<]C[>][<]}{[>][<]c1ccccc1[>][<]}{[>][<]Cc1ccccc1[>][<]}{[>][<]O=C1NC(=O)c2ccccc21[>][<]}{[>][<]C=O[>][<]}{[>][<]*N1C(=O)c2ccccc2C1=O[>][]}.CCCCO
238,p84,82.3,50.0,ethanol,26.5,15.0,60,1.0,0.019,2822.0,Cc1cc(c7ccc(Cc6ccc([*])cc6)cc7)ccc1n5c(=O)c4ccc(C(=O)c3ccc2c(=O)n([*])c(=O)c2c3)cc4c5=O,CCO,"[2, 2, 0, 5, 1, 0, 0, 0, 2, 5, 0, 0, 0, 0, 0]",[C][C][=C][C][=C][Branch1_1][=N][C][C][=C][C][=C][Branch1_1][C][C][C][=C][Ring1][Branch1_3][C][=C][Ring1][=C].[C][C][=C][C][Branch1_1][C][C][=C][C][=C][Ring1][Branch1_3][N][C][Branch1_2][C][=O][C][=C][C][=C][Branch2_1][Ring1][O][C][Branch1_2][C][=O][C][=C][C][=C][C][Branch1_2][C][=O][N][Branch1_1][C][C][C][Branch1_2][C][=O][C][Ring1][Branch2_1][=C][Ring1][N][C][=C][Ring2][Ring1][Ring2][C][Ring2][Ring1][Branch2_1][=O],[C][C][O],{[][<]*c1ccccc1[>][<]}{[>][<]C[>][<]}{[>][<]c1ccccc1[>][<]}{[>][<]Cc1ccccc1[>][<]}{[>][<]O=C1NC(=O)c2ccccc21[>][<]}{[>][<]C=O[>][<]}{[>][<]*N1C(=O)c2ccccc2C1=O[>][]},Cc1cc(c7ccc(Cc6ccc([*])cc6)cc7)ccc1n5c(=O)c4ccc(C(=O)c3ccc2c(=O)n([*])c(=O)c2c3)cc4c5=O.CCO,[C][C][=C][C][=C][Branch1_1][=N][C][C][=C][C][=C][Branch1_1][C][C][C][=C][Ring1][Branch1_3][C][=C][Ring1][=C].[C][C][=C][C][Branch1_1][C][C][=C][C][=C][Ring1][Branch1_3][N][C][Branch1_2][C][=O][C][=C][C][=C][Branch2_1][Ring1][O][C][Branch1_2][C][=O][C][=C][C][=C][C][Branch1_2][C][=O][N][Branch1_1][C][C][C][Branch1_2][C][=O][C][Ring1][Branch2_1][=C][Ring1][N][C][=C][Ring2][Ring1][Ring2][C][Ring2][Ring1][Branch2_1][=O].[C][C][O],{[][<]*c1ccccc1[>][<]}{[>][<]C[>][<]}{[>][<]c1ccccc1[>][<]}{[>][<]Cc1ccccc1[>][<]}{[>][<]O=C1NC(=O)c2ccccc21[>][<]}{[>][<]C=O[>][<]}{[>][<]*N1C(=O)c2ccccc2C1=O[>][]}.CCO
241,matrimid,91.2,50.0,ethanol,26.5,15.0,60,1.0,0.0256,505.0,CC7(C)CC(C)(c5ccc(n4c(=O)c3ccc(C(=O)c2ccc1c(=O)n([*])c(=O)c1c2)cc3c4=O)cc5)c6cc([*])ccc67,CCO,"[4, 2, 0, 5, 1, 2, 0, 0, 2, 4, 0, 0, 0, 0, 0]",[C][C][Branch1_1][C][C][C][C][Branch1_1][C][C][Branch2_1][Branch1_1][=N][C][=C][C][=C][Branch2_1][Ring2][P][N][C][Branch1_2][C][=O][C][=C][C][=C][Branch2_1][Ring1][O][C][Branch1_2][C][=O][C][=C][C][=C][C][Branch1_2][C][=O][N][Branch1_1][C][C][C][Branch1_2][C][=O][C][Ring1][Branch2_1][=C][Ring1][N][C][=C][Ring2][Ring1][Ring2][C][Ring2][Ring1][Branch2_1][=O][C][=C][Ring2][Ring1][#C][C][=C][C][Branch1_1][C][C][=C][C][=C][Ring1][Branch1_3][Ring2][Ring2][O],[C][C][O],{[][<]*N1C(=O)c2ccccc2C1=O[>][<]}{[>][<]C=O[>][<]}{[>][<]O=C1NC(=O)c2ccccc21[>][<]}{[>][<]c1ccccc1[>][<]}{[>][<]*c1ccc2c(c1)C(C)CC2(C)C[>][]},CC7(C)CC(C)(c5ccc(n4c(=O)c3ccc(C(=O)c2ccc1c(=O)n([*])c(=O)c1c2)cc3c4=O)cc5)c6cc([*])ccc67.CCO,[C][C][Branch1_1][C][C][C][C][Branch1_1][C][C][Branch2_1][Branch1_1][=N][C][=C][C][=C][Branch2_1][Ring2][P][N][C][Branch1_2][C][=O][C][=C][C][=C][Branch2_1][Ring1][O][C][Branch1_2][C][=O][C][=C][C][=C][C][Branch1_2][C][=O][N][Branch1_1][C][C][C][Branch1_2][C][=O][C][Ring1][Branch2_1][=C][Ring1][N][C][=C][Ring2][Ring1][Ring2][C][Ring2][Ring1][Branch2_1][=O][C][=C][Ring2][Ring1][#C][C][=C][C][Branch1_1][C][C][=C][C][=C][Ring1][Branch1_3][Ring2][Ring2][O].[C][C][O],{[][<]*N1C(=O)c2ccccc2C1=O[>][<]}{[>][<]C=O[>][<]}{[>][<]O=C1NC(=O)c2ccccc21[>][<]}{[>][<]c1ccccc1[>][<]}{[>][<]*c1ccc2c(c1)C(C)CC2(C)C[>][]}.CCO