Index,Polymer,Contact_angle,Thickness_um,Solvent,Solvent_solubility_parameter_Mpa_sqrt,xw_wt_percent,Temp_C,Permeate_pressure_mbar,J_Total_flux_kg_m_2h_1,a_Separation_factor_wo,Polymer_SMILES,Solvent_SMILES,Sum_of_frags,Polymer_SELFIES,Solvent_SELFIES,Polymer_BigSMILES,PS_SMILES,PS_SELFIES,PS_BigSMILES
21,pbo,82.0,24.24,ipa,23.5,15.0,25,1.0,0.0374,1044.555556,FC(F)(F)C(c1ccc([*])cc1)(c6ccc(c5nc4ccc(c3ccc2nc([*])oc2c3)cc4o5)cc6)C(F)(F)F,CC(C)O,"[2, 0, 1, 0, 1, 3, 0, 0, 2, 4, 0, 0, 0, 0, 2]",[F][C][Branch1_1][C][F][Branch1_1][C][F][C][Branch1_1][N][C][=C][C][=C][Branch1_1][C][C][C][=C][Ring1][Branch1_3][Branch2_1][Ring2][=N][C][=C][C][=C][Branch2_1][Ring1][P][C][=N][C][=C][C][=C][Branch1_1][P][C][=C][C][=C][N][=C][Branch1_1][C][C][O][C][Ring1][Branch1_2][=C][Ring1][Branch2_3][C][=C][Ring1][S][O][Ring2][Ring1][Ring1][C][=C][Ring2][Ring1][Branch2_2][C][Branch1_1][C][F][Branch1_1][C][F][F],[C][C][Branch1_1][C][C][O],{[][<]*c1ccccc1[>][<]}{[>][<]FC(F)(F)CC(F)(F)F[>][<]}{[>][<]c1ccccc1[>][<]}{[>][<]c1ccc2ocnc2c1[>][<]}{[>][<]*c1nc2ccccc2o1[>][]},FC(F)(F)C(c1ccc([*])cc1)(c6ccc(c5nc4ccc(c3ccc2nc([*])oc2c3)cc4o5)cc6)C(F)(F)F.CC(C)O,[F][C][Branch1_1][C][F][Branch1_1][C][F][C][Branch1_1][N][C][=C][C][=C][Branch1_1][C][C][C][=C][Ring1][Branch1_3][Branch2_1][Ring2][=N][C][=C][C][=C][Branch2_1][Ring1][P][C][=N][C][=C][C][=C][Branch1_1][P][C][=C][C][=C][N][=C][Branch1_1][C][C][O][C][Ring1][Branch1_2][=C][Ring1][Branch2_3][C][=C][Ring1][S][O][Ring2][Ring1][Ring1][C][=C][Ring2][Ring1][Branch2_2][C][Branch1_1][C][F][Branch1_1][C][F][F].[C][C][Branch1_1][C][C][O],{[][<]*c1ccccc1[>][<]}{[>][<]FC(F)(F)CC(F)(F)F[>][<]}{[>][<]c1ccccc1[>][<]}{[>][<]c1ccc2ocnc2c1[>][<]}{[>][<]*c1nc2ccccc2o1[>][]}.CC(C)O
22,pbo,82.0,24.24,ethanol,26.5,10.0,25,1.0,0.046,56.842105,FC(F)(F)C(c1ccc([*])cc1)(c6ccc(c5nc4ccc(c3ccc2nc([*])oc2c3)cc4o5)cc6)C(F)(F)F,CCO,"[1, 1, 0, 0, 1, 3, 0, 0, 2, 4, 0, 0, 0, 0, 2]",[F][C][Branch1_1][C][F][Branch1_1][C][F][C][Branch1_1][N][C][=C][C][=C][Branch1_1][C][C][C][=C][Ring1][Branch1_3][Branch2_1][Ring2][=N][C][=C][C][=C][Branch2_1][Ring1][P][C][=N][C][=C][C][=C][Branch1_1][P][C][=C][C][=C][N][=C][Branch1_1][C][C][O][C][Ring1][Branch1_2][=C][Ring1][Branch2_3][C][=C][Ring1][S][O][Ring2][Ring1][Ring1][C][=C][Ring2][Ring1][Branch2_2][C][Branch1_1][C][F][Branch1_1][C][F][F],[C][C][O],{[][<]*c1ccccc1[>][<]}{[>][<]FC(F)(F)CC(F)(F)F[>][<]}{[>][<]c1ccccc1[>][<]}{[>][<]c1ccc2ocnc2c1[>][<]}{[>][<]*c1nc2ccccc2o1[>][]},FC(F)(F)C(c1ccc([*])cc1)(c6ccc(c5nc4ccc(c3ccc2nc([*])oc2c3)cc4o5)cc6)C(F)(F)F.CCO,[F][C][Branch1_1][C][F][Branch1_1][C][F][C][Branch1_1][N][C][=C][C][=C][Branch1_1][C][C][C][=C][Ring1][Branch1_3][Branch2_1][Ring2][=N][C][=C][C][=C][Branch2_1][Ring1][P][C][=N][C][=C][C][=C][Branch1_1][P][C][=C][C][=C][N][=C][Branch1_1][C][C][O][C][Ring1][Branch1_2][=C][Ring1][Branch2_3][C][=C][Ring1][S][O][Ring2][Ring1][Ring1][C][=C][Ring2][Ring1][Branch2_2][C][Branch1_1][C][F][Branch1_1][C][F][F].[C][C][O],{[][<]*c1ccccc1[>][<]}{[>][<]FC(F)(F)CC(F)(F)F[>][<]}{[>][<]c1ccccc1[>][<]}{[>][<]c1ccc2ocnc2c1[>][<]}{[>][<]*c1nc2ccccc2o1[>][]}.CCO
28,pbo,82.0,24.24,ipa,23.5,10.0,80,1.0,0.1346,199.0,FC(F)(F)C(c1ccc([*])cc1)(c6ccc(c5nc4ccc(c3ccc2nc([*])oc2c3)cc4o5)cc6)C(F)(F)F,CC(C)O,"[2, 0, 1, 0, 1, 3, 0, 0, 2, 4, 0, 0, 0, 0, 2]",[F][C][Branch1_1][C][F][Branch1_1][C][F][C][Branch1_1][N][C][=C][C][=C][Branch1_1][C][C][C][=C][Ring1][Branch1_3][Branch2_1][Ring2][=N][C][=C][C][=C][Branch2_1][Ring1][P][C][=N][C][=C][C][=C][Branch1_1][P][C][=C][C][=C][N][=C][Branch1_1][C][C][O][C][Ring1][Branch1_2][=C][Ring1][Branch2_3][C][=C][Ring1][S][O][Ring2][Ring1][Ring1][C][=C][Ring2][Ring1][Branch2_2][C][Branch1_1][C][F][Branch1_1][C][F][F],[C][C][Branch1_1][C][C][O],{[][<]*c1ccccc1[>][<]}{[>][<]FC(F)(F)CC(F)(F)F[>][<]}{[>][<]c1ccccc1[>][<]}{[>][<]c1ccc2ocnc2c1[>][<]}{[>][<]*c1nc2ccccc2o1[>][]},FC(F)(F)C(c1ccc([*])cc1)(c6ccc(c5nc4ccc(c3ccc2nc([*])oc2c3)cc4o5)cc6)C(F)(F)F.CC(C)O,[F][C][Branch1_1][C][F][Branch1_1][C][F][C][Branch1_1][N][C][=C][C][=C][Branch1_1][C][C][C][=C][Ring1][Branch1_3][Branch2_1][Ring2][=N][C][=C][C][=C][Branch2_1][Ring1][P][C][=N][C][=C][C][=C][Branch1_1][P][C][=C][C][=C][N][=C][Branch1_1][C][C][O][C][Ring1][Branch1_2][=C][Ring1][Branch2_3][C][=C][Ring1][S][O][Ring2][Ring1][Ring1][C][=C][Ring2][Ring1][Branch2_2][C][Branch1_1][C][F][Branch1_1][C][F][F].[C][C][Branch1_1][C][C][O],{[][<]*c1ccccc1[>][<]}{[>][<]FC(F)(F)CC(F)(F)F[>][<]}{[>][<]c1ccccc1[>][<]}{[>][<]c1ccc2ocnc2c1[>][<]}{[>][<]*c1nc2ccccc2o1[>][]}.CC(C)O
38,p84,82.3,10.0,ipa,23.5,15.0,60,5.0,0.0631,2916.666667,Cc1cc(c7ccc(Cc6ccc([*])cc6)cc7)ccc1n5c(=O)c4ccc(C(=O)c3ccc2c(=O)n([*])c(=O)c2c3)cc4c5=O,CC(C)O,"[3, 1, 1, 5, 1, 0, 0, 0, 2, 5, 0, 0, 0, 0, 0]",[C][C][=C][C][=C][Branch1_1][=N][C][C][=C][C][=C][Branch1_1][C][C][C][=C][Ring1][Branch1_3][C][=C][Ring1][=C].[C][C][=C][C][Branch1_1][C][C][=C][C][=C][Ring1][Branch1_3][N][C][Branch1_2][C][=O][C][=C][C][=C][Branch2_1][Ring1][O][C][Branch1_2][C][=O][C][=C][C][=C][C][Branch1_2][C][=O][N][Branch1_1][C][C][C][Branch1_2][C][=O][C][Ring1][Branch2_1][=C][Ring1][N][C][=C][Ring2][Ring1][Ring2][C][Ring2][Ring1][Branch2_1][=O],[C][C][Branch1_1][C][C][O],{[][<]*c1ccccc1[>][<]}{[>][<]C[>][<]}{[>][<]c1ccccc1[>][<]}{[>][<]Cc1ccccc1[>][<]}{[>][<]O=C1NC(=O)c2ccccc21[>][<]}{[>][<]C=O[>][<]}{[>][<]*N1C(=O)c2ccccc2C1=O[>][]},Cc1cc(c7ccc(Cc6ccc([*])cc6)cc7)ccc1n5c(=O)c4ccc(C(=O)c3ccc2c(=O)n([*])c(=O)c2c3)cc4c5=O.CC(C)O,[C][C][=C][C][=C][Branch1_1][=N][C][C][=C][C][=C][Branch1_1][C][C][C][=C][Ring1][Branch1_3][C][=C][Ring1][=C].[C][C][=C][C][Branch1_1][C][C][=C][C][=C][Ring1][Branch1_3][N][C][Branch1_2][C][=O][C][=C][C][=C][Branch2_1][Ring1][O][C][Branch1_2][C][=O][C][=C][C][=C][C][Branch1_2][C][=O][N][Branch1_1][C][C][C][Branch1_2][C][=O][C][Ring1][Branch2_1][=C][Ring1][N][C][=C][Ring2][Ring1][Ring2][C][Ring2][Ring1][Branch2_1][=O].[C][C][Branch1_1][C][C][O],{[][<]*c1ccccc1[>][<]}{[>][<]C[>][<]}{[>][<]c1ccccc1[>][<]}{[>][<]Cc1ccccc1[>][<]}{[>][<]O=C1NC(=O)c2ccccc21[>][<]}{[>][<]C=O[>][<]}{[>][<]*N1C(=O)c2ccccc2C1=O[>][]}.CC(C)O
45,pva,74.0,22.0,ipa,23.5,10.0,25,1.3,0.0293,4.930693,C(*)C(*)(O),CC(C)O,"[2, 1, 2, 0, 2, 0, 0, 0, 0, 0, 0, 0, 0, 0, 0]",[C][Branch1_1][C][C][C][Branch1_1][C][C][Branch1_1][C][O],[C][C][Branch1_1][C][C][O],{[][<]*C[>][<]}{[>][<]*CO[>][]},C(*)C(*)(O).CC(C)O,[C][Branch1_1][C][C][C][Branch1_1][C][C][Branch1_1][C][O].[C][C][Branch1_1][C][C][O],{[][<]*C[>][<]}{[>][<]*CO[>][]}.CC(C)O
54,pva,74.0,22.0,ipa,23.5,5.0,75,1.3,7.8713,3.673267327,C(*)C(*)(O),CC(C)O,"[2, 1, 2, 0, 2, 0, 0, 0, 0, 0, 0, 0, 0, 0, 0]",[C][Branch1_1][C][C][C][Branch1_1][C][C][Branch1_1][C][O],[C][C][Branch1_1][C][C][O],{[][<]*C[>][<]}{[>][<]*CO[>][]},C(*)C(*)(O).CC(C)O,[C][Branch1_1][C][C][C][Branch1_1][C][C][Branch1_1][C][O].[C][C][Branch1_1][C][C][O],{[][<]*C[>][<]}{[>][<]*CO[>][]}.CC(C)O
55,pva,74.0,10.0,ipa,23.5,10.0,30,0.06,0.123,77.0,C(*)C(*)(O),CC(C)O,"[2, 1, 2, 0, 2, 0, 0, 0, 0, 0, 0, 0, 0, 0, 0]",[C][Branch1_1][C][C][C][Branch1_1][C][C][Branch1_1][C][O],[C][C][Branch1_1][C][C][O],{[][<]*C[>][<]}{[>][<]*CO[>][]},C(*)C(*)(O).CC(C)O,[C][Branch1_1][C][C][C][Branch1_1][C][C][Branch1_1][C][O].[C][C][Branch1_1][C][C][O],{[][<]*C[>][<]}{[>][<]*CO[>][]}.CC(C)O
58,pva,74.0,10.0,ipa,23.5,20.0,30,0.06,0.163,30.0,C(*)C(*)(O),CC(C)O,"[2, 1, 2, 0, 2, 0, 0, 0, 0, 0, 0, 0, 0, 0, 0]",[C][Branch1_1][C][C][C][Branch1_1][C][C][Branch1_1][C][O],[C][C][Branch1_1][C][C][O],{[][<]*C[>][<]}{[>][<]*CO[>][]},C(*)C(*)(O).CC(C)O,[C][Branch1_1][C][C][C][Branch1_1][C][C][Branch1_1][C][O].[C][C][Branch1_1][C][C][O],{[][<]*C[>][<]}{[>][<]*CO[>][]}.CC(C)O
61,pva,74.0,22.0,ethanol,26.5,10.0,40,3.0,0.0355,77.91,C(*)C(*)(O),CCO,"[1, 2, 1, 0, 2, 0, 0, 0, 0, 0, 0, 0, 0, 0, 0]",[C][Branch1_1][C][C][C][Branch1_1][C][C][Branch1_1][C][O],[C][C][O],{[][<]*C[>][<]}{[>][<]*CO[>][]},C(*)C(*)(O).CCO,[C][Branch1_1][C][C][C][Branch1_1][C][C][Branch1_1][C][O].[C][C][O],{[][<]*C[>][<]}{[>][<]*CO[>][]}.CCO
63,pva,74.0,22.0,ethanol,26.5,15.0,40,3.0,0.0376,103.76,C(*)C(*)(O),CCO,"[1, 2, 1, 0, 2, 0, 0, 0, 0, 0, 0, 0, 0, 0, 0]",[C][Branch1_1][C][C][C][Branch1_1][C][C][Branch1_1][C][O],[C][C][O],{[][<]*C[>][<]}{[>][<]*CO[>][]},C(*)C(*)(O).CCO,[C][Branch1_1][C][C][C][Branch1_1][C][C][Branch1_1][C][O].[C][C][O],{[][<]*C[>][<]}{[>][<]*CO[>][]}.CCO
71,pva,74.0,22.0,ipa,23.5,12.5,50,3.0,0.0528,105.46,C(*)C(*)(O),CC(C)O,"[2, 1, 2, 0, 2, 0, 0, 0, 0, 0, 0, 0, 0, 0, 0]",[C][Branch1_1][C][C][C][Branch1_1][C][C][Branch1_1][C][O],[C][C][Branch1_1][C][C][O],{[][<]*C[>][<]}{[>][<]*CO[>][]},C(*)C(*)(O).CC(C)O,[C][Branch1_1][C][C][C][Branch1_1][C][C][Branch1_1][C][O].[C][C][Branch1_1][C][C][O],{[][<]*C[>][<]}{[>][<]*CO[>][]}.CC(C)O
87,pva,74.0,22.0,ipa,23.5,10.0,60,3.0,0.0683,92.11,C(*)C(*)(O),CC(C)O,"[2, 1, 2, 0, 2, 0, 0, 0, 0, 0, 0, 0, 0, 0, 0]",[C][Branch1_1][C][C][C][Branch1_1][C][C][Branch1_1][C][O],[C][C][Branch1_1][C][C][O],{[][<]*C[>][<]}{[>][<]*CO[>][]},C(*)C(*)(O).CC(C)O,[C][Branch1_1][C][C][C][Branch1_1][C][C][Branch1_1][C][O].[C][C][Branch1_1][C][C][O],{[][<]*C[>][<]}{[>][<]*CO[>][]}.CC(C)O
95,pva,74.0,22.0,ethanol,26.5,12.5,67,3.0,0.1012,48.59,C(*)C(*)(O),CCO,"[1, 2, 1, 0, 2, 0, 0, 0, 0, 0, 0, 0, 0, 0, 0]",[C][Branch1_1][C][C][C][Branch1_1][C][C][Branch1_1][C][O],[C][C][O],{[][<]*C[>][<]}{[>][<]*CO[>][]},C(*)C(*)(O).CCO,[C][Branch1_1][C][C][C][Branch1_1][C][C][Branch1_1][C][O].[C][C][O],{[][<]*C[>][<]}{[>][<]*CO[>][]}.CCO
97,pva,74.0,22.0,ethanol,26.5,15.0,60,3.0,0.11,52.64,C(*)C(*)(O),CCO,"[1, 2, 1, 0, 2, 0, 0, 0, 0, 0, 0, 0, 0, 0, 0]",[C][Branch1_1][C][C][C][Branch1_1][C][C][Branch1_1][C][O],[C][C][O],{[][<]*C[>][<]}{[>][<]*CO[>][]},C(*)C(*)(O).CCO,[C][Branch1_1][C][C][C][Branch1_1][C][C][Branch1_1][C][O].[C][C][O],{[][<]*C[>][<]}{[>][<]*CO[>][]}.CCO
107,alginate,37.37,45.0,ipa,23.5,5.0,60,3.0,0.2328,3603.305055,O=C(O)C1OC(C[*])C(O)C(O)C1O(C[*]),CC(C)O,"[2, 0, 11, 2, 7, 0, 0, 0, 0, 0, 4, 0, 0, 0, 0]",[O][=C][Branch1_1][C][O][C][O][C][Branch1_1][C][C][C][Branch1_1][C][O][C][Branch1_1][C][O][C][Ring1][Branch2_2][O][Branch1_1][C][C].[O][=C][Branch1_1][C][O][C][O][C][Branch1_1][C][C][C][Branch1_1][C][O][C][Branch1_1][C][O][C][Ring1][Branch2_2][O][Branch1_1][C][C],[C][C][Branch1_1][C][C][O],{[][<]*C[>][<]}{[>][<]O=C(O)C1CC(O)C(O)CO1[>][<]}{[>][<]O[>][<]}{[>][<]*C[>][]},O=C(O)C1OC(C[*])C(O)C(O)C1O(C[*]).CC(C)O,[O][=C][Branch1_1][C][O][C][O][C][Branch1_1][C][C][C][Branch1_1][C][O][C][Branch1_1][C][O][C][Ring1][Branch2_2][O][Branch1_1][C][C].[O][=C][Branch1_1][C][O][C][O][C][Branch1_1][C][C][C][Branch1_1][C][O][C][Branch1_1][C][O][C][Ring1][Branch2_2][O][Branch1_1][C][C].[C][C][Branch1_1][C][C][O],{[][<]*C[>][<]}{[>][<]O=C(O)C1CC(O)C(O)CO1[>][<]}{[>][<]O[>][<]}{[>][<]*C[>][]}.CC(C)O
111,alginate,37.37,45.0,ethanol,26.5,20.0,60,3.0,0.5297,1499.077811,O=C(O)C1OC(C[*])C(O)C(O)C1O(C[*]),CCO,"[1, 1, 10, 2, 7, 0, 0, 0, 0, 0, 4, 0, 0, 0, 0]",[O][=C][Branch1_1][C][O][C][O][C][Branch1_1][C][C][C][Branch1_1][C][O][C][Branch1_1][C][O][C][Ring1][Branch2_2][O][Branch1_1][C][C].[O][=C][Branch1_1][C][O][C][O][C][Branch1_1][C][C][C][Branch1_1][C][O][C][Branch1_1][C][O][C][Ring1][Branch2_2][O][Branch1_1][C][C],[C][C][O],{[][<]*C[>][<]}{[>][<]O=C(O)C1CC(O)C(O)CO1[>][<]}{[>][<]O[>][<]}{[>][<]*C[>][]},O=C(O)C1OC(C[*])C(O)C(O)C1O(C[*]).CCO,[O][=C][Branch1_1][C][O][C][O][C][Branch1_1][C][C][C][Branch1_1][C][O][C][Branch1_1][C][O][C][Ring1][Branch2_2][O][Branch1_1][C][C].[O][=C][Branch1_1][C][O][C][O][C][Branch1_1][C][C][C][Branch1_1][C][O][C][Branch1_1][C][O][C][Ring1][Branch2_2][O][Branch1_1][C][C].[C][C][O],{[][<]*C[>][<]}{[>][<]O=C(O)C1CC(O)C(O)CO1[>][<]}{[>][<]O[>][<]}{[>][<]*C[>][]}.CCO
123,alginate,37.37,40.0,ipa,23.5,20.0,30,1.33,0.0999,62.67,O=C(O)C1OC(C[*])C(O)C(O)C1O(C[*]),CC(C)O,"[2, 0, 11, 2, 7, 0, 0, 0, 0, 0, 4, 0, 0, 0, 0]",[O][=C][Branch1_1][C][O][C][O][C][Branch1_1][C][C][C][Branch1_1][C][O][C][Branch1_1][C][O][C][Ring1][Branch2_2][O][Branch1_1][C][C].[O][=C][Branch1_1][C][O][C][O][C][Branch1_1][C][C][C][Branch1_1][C][O][C][Branch1_1][C][O][C][Ring1][Branch2_2][O][Branch1_1][C][C],[C][C][Branch1_1][C][C][O],{[][<]*C[>][<]}{[>][<]O=C(O)C1CC(O)C(O)CO1[>][<]}{[>][<]O[>][<]}{[>][<]*C[>][]},O=C(O)C1OC(C[*])C(O)C(O)C1O(C[*]).CC(C)O,[O][=C][Branch1_1][C][O][C][O][C][Branch1_1][C][C][C][Branch1_1][C][O][C][Branch1_1][C][O][C][Ring1][Branch2_2][O][Branch1_1][C][C].[O][=C][Branch1_1][C][O][C][O][C][Branch1_1][C][C][C][Branch1_1][C][O][C][Branch1_1][C][O][C][Ring1][Branch2_2][O][Branch1_1][C][C].[C][C][Branch1_1][C][C][O],{[][<]*C[>][<]}{[>][<]O=C(O)C1CC(O)C(O)CO1[>][<]}{[>][<]O[>][<]}{[>][<]*C[>][]}.CC(C)O
131,alginate,37.37,10.0,ethanol,26.5,5.0,30,13.3,0.028,22.331303,O=C(O)C1OC(C[*])C(O)C(O)C1O(C[*]),CCO,"[1, 1, 10, 2, 7, 0, 0, 0, 0, 0, 4, 0, 0, 0, 0]",[O][=C][Branch1_1][C][O][C][O][C][Branch1_1][C][C][C][Branch1_1][C][O][C][Branch1_1][C][O][C][Ring1][Branch2_2][O][Branch1_1][C][C].[O][=C][Branch1_1][C][O][C][O][C][Branch1_1][C][C][C][Branch1_1][C][O][C][Branch1_1][C][O][C][Ring1][Branch2_2][O][Branch1_1][C][C],[C][C][O],{[][<]*C[>][<]}{[>][<]O=C(O)C1CC(O)C(O)CO1[>][<]}{[>][<]O[>][<]}{[>][<]*C[>][]},O=C(O)C1OC(C[*])C(O)C(O)C1O(C[*]).CCO,[O][=C][Branch1_1][C][O][C][O][C][Branch1_1][C][C][C][Branch1_1][C][O][C][Branch1_1][C][O][C][Ring1][Branch2_2][O][Branch1_1][C][C].[O][=C][Branch1_1][C][O][C][O][C][Branch1_1][C][C][C][Branch1_1][C][O][C][Branch1_1][C][O][C][Ring1][Branch2_2][O][Branch1_1][C][C].[C][C][O],{[][<]*C[>][<]}{[>][<]O=C(O)C1CC(O)C(O)CO1[>][<]}{[>][<]O[>][<]}{[>][<]*C[>][]}.CCO
134,alginate,37.37,10.0,ethanol,26.5,15.0,30,13.3,0.053,6.58029,O=C(O)C1OC(C[*])C(O)C(O)C1O(C[*]),CCO,"[1, 1, 10, 2, 7, 0, 0, 0, 0, 0, 4, 0, 0, 0, 0]",[O][=C][Branch1_1][C][O][C][O][C][Branch1_1][C][C][C][Branch1_1][C][O][C][Branch1_1][C][O][C][Ring1][Branch2_2][O][Branch1_1][C][C].[O][=C][Branch1_1][C][O][C][O][C][Branch1_1][C][C][C][Branch1_1][C][O][C][Branch1_1][C][O][C][Ring1][Branch2_2][O][Branch1_1][C][C],[C][C][O],{[][<]*C[>][<]}{[>][<]O=C(O)C1CC(O)C(O)CO1[>][<]}{[>][<]O[>][<]}{[>][<]*C[>][]},O=C(O)C1OC(C[*])C(O)C(O)C1O(C[*]).CCO,[O][=C][Branch1_1][C][O][C][O][C][Branch1_1][C][C][C][Branch1_1][C][O][C][Branch1_1][C][O][C][Ring1][Branch2_2][O][Branch1_1][C][C].[O][=C][Branch1_1][C][O][C][O][C][Branch1_1][C][C][C][Branch1_1][C][O][C][Branch1_1][C][O][C][Ring1][Branch2_2][O][Branch1_1][C][C].[C][C][O],{[][<]*C[>][<]}{[>][<]O=C(O)C1CC(O)C(O)CO1[>][<]}{[>][<]O[>][<]}{[>][<]*C[>][]}.CCO
136,alginate,37.37,10.0,ethanol,26.5,4.0,60,13.3,0.121,23.932894,O=C(O)C1OC(C[*])C(O)C(O)C1O(C[*]),CCO,"[1, 1, 10, 2, 7, 0, 0, 0, 0, 0, 4, 0, 0, 0, 0]",[O][=C][Branch1_1][C][O][C][O][C][Branch1_1][C][C][C][Branch1_1][C][O][C][Branch1_1][C][O][C][Ring1][Branch2_2][O][Branch1_1][C][C].[O][=C][Branch1_1][C][O][C][O][C][Branch1_1][C][C][C][Branch1_1][C][O][C][Branch1_1][C][O][C][Ring1][Branch2_2][O][Branch1_1][C][C],[C][C][O],{[][<]*C[>][<]}{[>][<]O=C(O)C1CC(O)C(O)CO1[>][<]}{[>][<]O[>][<]}{[>][<]*C[>][]},O=C(O)C1OC(C[*])C(O)C(O)C1O(C[*]).CCO,[O][=C][Branch1_1][C][O][C][O][C][Branch1_1][C][C][C][Branch1_1][C][O][C][Branch1_1][C][O][C][Ring1][Branch2_2][O][Branch1_1][C][C].[O][=C][Branch1_1][C][O][C][O][C][Branch1_1][C][C][C][Branch1_1][C][O][C][Branch1_1][C][O][C][Ring1][Branch2_2][O][Branch1_1][C][C].[C][C][O],{[][<]*C[>][<]}{[>][<]O=C(O)C1CC(O)C(O)CO1[>][<]}{[>][<]O[>][<]}{[>][<]*C[>][]}.CCO
141,alginate,37.37,10.0,ipa,23.5,12.6,50,13.3,0.204,285.743152,O=C(O)C1OC(C[*])C(O)C(O)C1O(C[*]),CC(C)O,"[2, 0, 11, 2, 7, 0, 0, 0, 0, 0, 4, 0, 0, 0, 0]",[O][=C][Branch1_1][C][O][C][O][C][Branch1_1][C][C][C][Branch1_1][C][O][C][Branch1_1][C][O][C][Ring1][Branch2_2][O][Branch1_1][C][C].[O][=C][Branch1_1][C][O][C][O][C][Branch1_1][C][C][C][Branch1_1][C][O][C][Branch1_1][C][O][C][Ring1][Branch2_2][O][Branch1_1][C][C],[C][C][Branch1_1][C][C][O],{[][<]*C[>][<]}{[>][<]O=C(O)C1CC(O)C(O)CO1[>][<]}{[>][<]O[>][<]}{[>][<]*C[>][]},O=C(O)C1OC(C[*])C(O)C(O)C1O(C[*]).CC(C)O,[O][=C][Branch1_1][C][O][C][O][C][Branch1_1][C][C][C][Branch1_1][C][O][C][Branch1_1][C][O][C][Ring1][Branch2_2][O][Branch1_1][C][C].[O][=C][Branch1_1][C][O][C][O][C][Branch1_1][C][C][C][Branch1_1][C][O][C][Branch1_1][C][O][C][Ring1][Branch2_2][O][Branch1_1][C][C].[C][C][Branch1_1][C][C][O],{[][<]*C[>][<]}{[>][<]O=C(O)C1CC(O)C(O)CO1[>][<]}{[>][<]O[>][<]}{[>][<]*C[>][]}.CC(C)O
149,alginate,37.37,50.0,ipa,23.5,12.6,50,13.3,0.08,174.0,O=C(O)C1OC(C[*])C(O)C(O)C1O(C[*]),CC(C)O,"[2, 0, 11, 2, 7, 0, 0, 0, 0, 0, 4, 0, 0, 0, 0]",[O][=C][Branch1_1][C][O][C][O][C][Branch1_1][C][C][C][Branch1_1][C][O][C][Branch1_1][C][O][C][Ring1][Branch2_2][O][Branch1_1][C][C].[O][=C][Branch1_1][C][O][C][O][C][Branch1_1][C][C][C][Branch1_1][C][O][C][Branch1_1][C][O][C][Ring1][Branch2_2][O][Branch1_1][C][C],[C][C][Branch1_1][C][C][O],{[][<]*C[>][<]}{[>][<]O=C(O)C1CC(O)C(O)CO1[>][<]}{[>][<]O[>][<]}{[>][<]*C[>][]},O=C(O)C1OC(C[*])C(O)C(O)C1O(C[*]).CC(C)O,[O][=C][Branch1_1][C][O][C][O][C][Branch1_1][C][C][C][Branch1_1][C][O][C][Branch1_1][C][O][C][Ring1][Branch2_2][O][Branch1_1][C][C].[O][=C][Branch1_1][C][O][C][O][C][Branch1_1][C][C][C][Branch1_1][C][O][C][Branch1_1][C][O][C][Ring1][Branch2_2][O][Branch1_1][C][C].[C][C][Branch1_1][C][C][O],{[][<]*C[>][<]}{[>][<]O=C(O)C1CC(O)C(O)CO1[>][<]}{[>][<]O[>][<]}{[>][<]*C[>][]}.CC(C)O
161,alginate,37.37,50.0,ipa,23.5,10.0,30,13.3,0.0679,653.0,O=C(O)C1OC(C[*])C(O)C(O)C1O(C[*]),CC(C)O,"[2, 0, 11, 2, 7, 0, 0, 0, 0, 0, 4, 0, 0, 0, 0]",[O][=C][Branch1_1][C][O][C][O][C][Branch1_1][C][C][C][Branch1_1][C][O][C][Branch1_1][C][O][C][Ring1][Branch2_2][O][Branch1_1][C][C].[O][=C][Branch1_1][C][O][C][O][C][Branch1_1][C][C][C][Branch1_1][C][O][C][Branch1_1][C][O][C][Ring1][Branch2_2][O][Branch1_1][C][C],[C][C][Branch1_1][C][C][O],{[][<]*C[>][<]}{[>][<]O=C(O)C1CC(O)C(O)CO1[>][<]}{[>][<]O[>][<]}{[>][<]*C[>][]},O=C(O)C1OC(C[*])C(O)C(O)C1O(C[*]).CC(C)O,[O][=C][Branch1_1][C][O][C][O][C][Branch1_1][C][C][C][Branch1_1][C][O][C][Branch1_1][C][O][C][Ring1][Branch2_2][O][Branch1_1][C][C].[O][=C][Branch1_1][C][O][C][O][C][Branch1_1][C][C][C][Branch1_1][C][O][C][Branch1_1][C][O][C][Ring1][Branch2_2][O][Branch1_1][C][C].[C][C][Branch1_1][C][C][O],{[][<]*C[>][<]}{[>][<]O=C(O)C1CC(O)C(O)CO1[>][<]}{[>][<]O[>][<]}{[>][<]*C[>][]}.CC(C)O
171,alginate,37.37,50.0,ipa,23.5,30.0,40,13.3,0.122,56.0,O=C(O)C1OC(C[*])C(O)C(O)C1O(C[*]),CC(C)O,"[2, 0, 11, 2, 7, 0, 0, 0, 0, 0, 4, 0, 0, 0, 0]",[O][=C][Branch1_1][C][O][C][O][C][Branch1_1][C][C][C][Branch1_1][C][O][C][Branch1_1][C][O][C][Ring1][Branch2_2][O][Branch1_1][C][C].[O][=C][Branch1_1][C][O][C][O][C][Branch1_1][C][C][C][Branch1_1][C][O][C][Branch1_1][C][O][C][Ring1][Branch2_2][O][Branch1_1][C][C],[C][C][Branch1_1][C][C][O],{[][<]*C[>][<]}{[>][<]O=C(O)C1CC(O)C(O)CO1[>][<]}{[>][<]O[>][<]}{[>][<]*C[>][]},O=C(O)C1OC(C[*])C(O)C(O)C1O(C[*]).CC(C)O,[O][=C][Branch1_1][C][O][C][O][C][Branch1_1][C][C][C][Branch1_1][C][O][C][Branch1_1][C][O][C][Ring1][Branch2_2][O][Branch1_1][C][C].[O][=C][Branch1_1][C][O][C][O][C][Branch1_1][C][C][C][Branch1_1][C][O][C][Branch1_1][C][O][C][Ring1][Branch2_2][O][Branch1_1][C][C].[C][C][Branch1_1][C][C][O],{[][<]*C[>][<]}{[>][<]O=C(O)C1CC(O)C(O)CO1[>][<]}{[>][<]O[>][<]}{[>][<]*C[>][]}.CC(C)O
182,alginate,37.37,50.0,ipa,23.5,10.0,50,0.06,0.0849,278.0,O=C(O)C1OC(C[*])C(O)C(O)C1O(C[*]),CC(C)O,"[2, 0, 11, 2, 7, 0, 0, 0, 0, 0, 4, 0, 0, 0, 0]",[O][=C][Branch1_1][C][O][C][O][C][Branch1_1][C][C][C][Branch1_1][C][O][C][Branch1_1][C][O][C][Ring1][Branch2_2][O][Branch1_1][C][C].[O][=C][Branch1_1][C][O][C][O][C][Branch1_1][C][C][C][Branch1_1][C][O][C][Branch1_1][C][O][C][Ring1][Branch2_2][O][Branch1_1][C][C],[C][C][Branch1_1][C][C][O],{[][<]*C[>][<]}{[>][<]O=C(O)C1CC(O)C(O)CO1[>][<]}{[>][<]O[>][<]}{[>][<]*C[>][]},O=C(O)C1OC(C[*])C(O)C(O)C1O(C[*]).CC(C)O,[O][=C][Branch1_1][C][O][C][O][C][Branch1_1][C][C][C][Branch1_1][C][O][C][Branch1_1][C][O][C][Ring1][Branch2_2][O][Branch1_1][C][C].[O][=C][Branch1_1][C][O][C][O][C][Branch1_1][C][C][C][Branch1_1][C][O][C][Branch1_1][C][O][C][Ring1][Branch2_2][O][Branch1_1][C][C].[C][C][Branch1_1][C][C][O],{[][<]*C[>][<]}{[>][<]O=C(O)C1CC(O)C(O)CO1[>][<]}{[>][<]O[>][<]}{[>][<]*C[>][]}.CC(C)O