Index,Polymer,Contact_angle,Thickness_um,Solvent,Solvent_solubility_parameter_Mpa_sqrt,xw_wt_percent,Temp_C,Permeate_pressure_mbar,J_Total_flux_kg_m_2h_1,a_Separation_factor_wo,Polymer_SMILES,Solvent_SMILES,Sum_of_frags,Polymer_SELFIES,Solvent_SELFIES,Polymer_BigSMILES,PS_SMILES,PS_SELFIES,PS_BigSMILES
356,pdms,108.08219,25.0,ipa,23.5,96.0,50,1.0,0.63,0.092571,*O[Si](*)(C)C,CC(C)O,"[4, 0, 1, 0, 1, 0, 0, 0, 0, 0, 1, 0, 0, 1, 0]",[Siexpl][Branch1_1][C][C][Branch1_1][C][C][Branch1_1][C][C][O][Branch1_1][C][C],[C][C][Branch1_1][C][C][O],{[][<]*O[>][<]}{[>][<]*[Si](C)C[>][]},*O[Si](*)(C)C.CC(C)O,[Siexpl][Branch1_1][C][C][Branch1_1][C][C][Branch1_1][C][C][O][Branch1_1][C][C].[C][C][Branch1_1][C][C][O],{[][<]*O[>][<]}{[>][<]*[Si](C)C[>][]}.CC(C)O
357,pdms,108.08219,25.0,ipa,23.5,96.0,60,1.0,0.793125,0.100621,*O[Si](*)(C)C,CC(C)O,"[4, 0, 1, 0, 1, 0, 0, 0, 0, 0, 1, 0, 0, 1, 0]",[Siexpl][Branch1_1][C][C][Branch1_1][C][C][Branch1_1][C][C][O][Branch1_1][C][C],[C][C][Branch1_1][C][C][O],{[][<]*O[>][<]}{[>][<]*[Si](C)C[>][]},*O[Si](*)(C)C.CC(C)O,[Siexpl][Branch1_1][C][C][Branch1_1][C][C][Branch1_1][C][C][O][Branch1_1][C][C].[C][C][Branch1_1][C][C][O],{[][<]*O[>][<]}{[>][<]*[Si](C)C[>][]}.CC(C)O
358,pdms,108.08219,1.5,methanol,29.6,95.0,20,10.0,0.441142857,0.132593,*O[Si](*)(C)C,CO,"[3, 0, 0, 0, 1, 0, 0, 0, 0, 0, 1, 0, 0, 1, 0]",[Siexpl][Branch1_1][C][C][Branch1_1][C][C][Branch1_1][C][C][O][Branch1_1][C][C],[C][O],{[][<]*O[>][<]}{[>][<]*[Si](C)C[>][]},*O[Si](*)(C)C.CO,[Siexpl][Branch1_1][C][C][Branch1_1][C][C][Branch1_1][C][C][O][Branch1_1][C][C].[C][O],{[][<]*O[>][<]}{[>][<]*[Si](C)C[>][]}.CO
359,pdms,108.08219,1.5,ethanol,26.5,95.0,20,10.0,0.441142857,0.105294,*O[Si](*)(C)C,CCO,"[3, 1, 0, 0, 1, 0, 0, 0, 0, 0, 1, 0, 0, 1, 0]",[Siexpl][Branch1_1][C][C][Branch1_1][C][C][Branch1_1][C][C][O][Branch1_1][C][C],[C][C][O],{[][<]*O[>][<]}{[>][<]*[Si](C)C[>][]},*O[Si](*)(C)C.CCO,[Siexpl][Branch1_1][C][C][Branch1_1][C][C][Branch1_1][C][C][O][Branch1_1][C][C].[C][C][O],{[][<]*O[>][<]}{[>][<]*[Si](C)C[>][]}.CCO
360,ppms,121.2,1.5,methanol,29.6,95.0,20,10.0,0.537142857,0.325455,C[Si]([*])(O[*])c1ccccc1,CO,"[2, 0, 0, 0, 1, 0, 0, 0, 0, 1, 1, 0, 0, 1, 0]",[C][Siexpl][Branch1_1][C][C][Branch1_1][Branch1_1][O][Branch1_1][C][C][C][=C][C][=C][C][=C][Ring1][Branch1_2],[C][O],{[][<]*[Si](C)c1ccccc1[>][<]}{[>][<]*O[>][]},C[Si]([*])(O[*])c1ccccc1.CO,[C][Siexpl][Branch1_1][C][C][Branch1_1][Branch1_1][O][Branch1_1][C][C][C][=C][C][=C][C][=C][Ring1][Branch1_2].[C][O],{[][<]*[Si](C)c1ccccc1[>][<]}{[>][<]*O[>][]}.CO
361,ppms,121.2,1.5,ethanol,26.5,95.0,20,10.0,0.578285714,0.1432,C[Si]([*])(O[*])c1ccccc1,CCO,"[2, 1, 0, 0, 1, 0, 0, 0, 0, 1, 1, 0, 0, 1, 0]",[C][Siexpl][Branch1_1][C][C][Branch1_1][Branch1_1][O][Branch1_1][C][C][C][=C][C][=C][C][=C][Ring1][Branch1_2],[C][C][O],{[][<]*[Si](C)c1ccccc1[>][<]}{[>][<]*O[>][]},C[Si]([*])(O[*])c1ccccc1.CCO,[C][Siexpl][Branch1_1][C][C][Branch1_1][Branch1_1][O][Branch1_1][C][C][C][=C][C][=C][C][=C][Ring1][Branch1_2].[C][C][O],{[][<]*[Si](C)c1ccccc1[>][<]}{[>][<]*O[>][]}.CCO
362,pdms,108.08219,1.5,methanol,29.6,95.0,30,10.0,0.660571429,0.137692,*O[Si](*)(C)C,CO,"[3, 0, 0, 0, 1, 0, 0, 0, 0, 0, 1, 0, 0, 1, 0]",[Siexpl][Branch1_1][C][C][Branch1_1][C][C][Branch1_1][C][C][O][Branch1_1][C][C],[C][O],{[][<]*O[>][<]}{[>][<]*[Si](C)C[>][]},*O[Si](*)(C)C.CO,[Siexpl][Branch1_1][C][C][Branch1_1][C][C][Branch1_1][C][C][O][Branch1_1][C][C].[C][O],{[][<]*O[>][<]}{[>][<]*[Si](C)C[>][]}.CO
363,pdms,108.08219,1.5,ethanol,26.5,95.0,30,10.0,0.660571429,0.111875,*O[Si](*)(C)C,CCO,"[3, 1, 0, 0, 1, 0, 0, 0, 0, 0, 1, 0, 0, 1, 0]",[Siexpl][Branch1_1][C][C][Branch1_1][C][C][Branch1_1][C][C][O][Branch1_1][C][C],[C][C][O],{[][<]*O[>][<]}{[>][<]*[Si](C)C[>][]},*O[Si](*)(C)C.CCO,[Siexpl][Branch1_1][C][C][Branch1_1][C][C][Branch1_1][C][C][O][Branch1_1][C][C].[C][C][O],{[][<]*O[>][<]}{[>][<]*[Si](C)C[>][]}.CCO
364,ppms,121.2,1.5,methanol,29.6,95.0,30,10.0,0.797714286,0.238667,C[Si]([*])(O[*])c1ccccc1,CO,"[2, 0, 0, 0, 1, 0, 0, 0, 0, 1, 1, 0, 0, 1, 0]",[C][Siexpl][Branch1_1][C][C][Branch1_1][Branch1_1][O][Branch1_1][C][C][C][=C][C][=C][C][=C][Ring1][Branch1_2],[C][O],{[][<]*[Si](C)c1ccccc1[>][<]}{[>][<]*O[>][]},C[Si]([*])(O[*])c1ccccc1.CO,[C][Siexpl][Branch1_1][C][C][Branch1_1][Branch1_1][O][Branch1_1][C][C][C][=C][C][=C][C][=C][Ring1][Branch1_2].[C][O],{[][<]*[Si](C)c1ccccc1[>][<]}{[>][<]*O[>][]}.CO
365,ppms,121.2,1.5,ethanol,26.5,95.0,30,10.0,0.893714286,0.162727,C[Si]([*])(O[*])c1ccccc1,CCO,"[2, 1, 0, 0, 1, 0, 0, 0, 0, 1, 1, 0, 0, 1, 0]",[C][Siexpl][Branch1_1][C][C][Branch1_1][Branch1_1][O][Branch1_1][C][C][C][=C][C][=C][C][=C][Ring1][Branch1_2],[C][C][O],{[][<]*[Si](C)c1ccccc1[>][<]}{[>][<]*O[>][]},C[Si]([*])(O[*])c1ccccc1.CCO,[C][Siexpl][Branch1_1][C][C][Branch1_1][Branch1_1][O][Branch1_1][C][C][C][=C][C][=C][C][=C][Ring1][Branch1_2].[C][C][O],{[][<]*[Si](C)c1ccccc1[>][<]}{[>][<]*O[>][]}.CCO
367,pdms,108.08219,1.5,ethanol,26.5,95.0,40,10.0,1.140571429,0.108485,*O[Si](*)(C)C,CCO,"[3, 1, 0, 0, 1, 0, 0, 0, 0, 0, 1, 0, 0, 1, 0]",[Siexpl][Branch1_1][C][C][Branch1_1][C][C][Branch1_1][C][C][O][Branch1_1][C][C],[C][C][O],{[][<]*O[>][<]}{[>][<]*[Si](C)C[>][]},*O[Si](*)(C)C.CCO,[Siexpl][Branch1_1][C][C][Branch1_1][C][C][Branch1_1][C][C][O][Branch1_1][C][C].[C][C][O],{[][<]*O[>][<]}{[>][<]*[Si](C)C[>][]}.CCO
368,pdms,108.08219,1.5,methanol,29.6,95.0,45,10.0,1.346285714,0.1432,*O[Si](*)(C)C,CO,"[3, 0, 0, 0, 1, 0, 0, 0, 0, 0, 1, 0, 0, 1, 0]",[Siexpl][Branch1_1][C][C][Branch1_1][C][C][Branch1_1][C][C][O][Branch1_1][C][C],[C][O],{[][<]*O[>][<]}{[>][<]*[Si](C)C[>][]},*O[Si](*)(C)C.CO,[Siexpl][Branch1_1][C][C][Branch1_1][C][C][Branch1_1][C][C][O][Branch1_1][C][C].[C][O],{[][<]*O[>][<]}{[>][<]*[Si](C)C[>][]}.CO
369,ppms,121.2,1.5,methanol,29.6,95.0,40,10.0,1.36,0.210588,C[Si]([*])(O[*])c1ccccc1,CO,"[2, 0, 0, 0, 1, 0, 0, 0, 0, 1, 1, 0, 0, 1, 0]",[C][Siexpl][Branch1_1][C][C][Branch1_1][Branch1_1][O][Branch1_1][C][C][C][=C][C][=C][C][=C][Ring1][Branch1_2],[C][O],{[][<]*[Si](C)c1ccccc1[>][<]}{[>][<]*O[>][]},C[Si]([*])(O[*])c1ccccc1.CO,[C][Siexpl][Branch1_1][C][C][Branch1_1][Branch1_1][O][Branch1_1][C][C][C][=C][C][=C][C][=C][Ring1][Branch1_2].[C][O],{[][<]*[Si](C)c1ccccc1[>][<]}{[>][<]*O[>][]}.CO
371,ppms,121.2,1.5,ethanol,26.5,95.0,40,10.0,1.428571429,0.170476,C[Si]([*])(O[*])c1ccccc1,CCO,"[2, 1, 0, 0, 1, 0, 0, 0, 0, 1, 1, 0, 0, 1, 0]",[C][Siexpl][Branch1_1][C][C][Branch1_1][Branch1_1][O][Branch1_1][C][C][C][=C][C][=C][C][=C][Ring1][Branch1_2],[C][C][O],{[][<]*[Si](C)c1ccccc1[>][<]}{[>][<]*O[>][]},C[Si]([*])(O[*])c1ccccc1.CCO,[C][Siexpl][Branch1_1][C][C][Branch1_1][Branch1_1][O][Branch1_1][C][C][C][=C][C][=C][C][=C][Ring1][Branch1_2].[C][C][O],{[][<]*[Si](C)c1ccccc1[>][<]}{[>][<]*O[>][]}.CCO
372,ppms,121.2,1.5,methanol,29.6,95.0,45,10.0,1.730285714,0.198889,C[Si]([*])(O[*])c1ccccc1,CO,"[2, 0, 0, 0, 1, 0, 0, 0, 0, 1, 1, 0, 0, 1, 0]",[C][Siexpl][Branch1_1][C][C][Branch1_1][Branch1_1][O][Branch1_1][C][C][C][=C][C][=C][C][=C][Ring1][Branch1_2],[C][O],{[][<]*[Si](C)c1ccccc1[>][<]}{[>][<]*O[>][]},C[Si]([*])(O[*])c1ccccc1.CO,[C][Siexpl][Branch1_1][C][C][Branch1_1][Branch1_1][O][Branch1_1][C][C][C][=C][C][=C][C][=C][Ring1][Branch1_2].[C][O],{[][<]*[Si](C)c1ccccc1[>][<]}{[>][<]*O[>][]}.CO
373,ppms,121.2,1.5,ethanol,26.5,95.0,45,10.0,1.785142857,0.162727,C[Si]([*])(O[*])c1ccccc1,CCO,"[2, 1, 0, 0, 1, 0, 0, 0, 0, 1, 1, 0, 0, 1, 0]",[C][Siexpl][Branch1_1][C][C][Branch1_1][Branch1_1][O][Branch1_1][C][C][C][=C][C][=C][C][=C][Ring1][Branch1_2],[C][C][O],{[][<]*[Si](C)c1ccccc1[>][<]}{[>][<]*O[>][]},C[Si]([*])(O[*])c1ccccc1.CCO,[C][Siexpl][Branch1_1][C][C][Branch1_1][Branch1_1][O][Branch1_1][C][C][C][=C][C][=C][C][=C][Ring1][Branch1_2].[C][C][O],{[][<]*[Si](C)c1ccccc1[>][<]}{[>][<]*O[>][]}.CCO
374,pdms,108.08219,8.0,methanol,29.6,99.7,30,9.0,0.366492147,0.130435,*O[Si](*)(C)C,CO,"[3, 0, 0, 0, 1, 0, 0, 0, 0, 0, 1, 0, 0, 1, 0]",[Siexpl][Branch1_1][C][C][Branch1_1][C][C][Branch1_1][C][C][O][Branch1_1][C][C],[C][O],{[][<]*O[>][<]}{[>][<]*[Si](C)C[>][]},*O[Si](*)(C)C.CO,[Siexpl][Branch1_1][C][C][Branch1_1][C][C][Branch1_1][C][C][O][Branch1_1][C][C].[C][O],{[][<]*O[>][<]}{[>][<]*[Si](C)C[>][]}.CO
375,pdms,108.08219,8.0,methanol,29.6,99.0,30,9.0,0.418848168,0.295775,*O[Si](*)(C)C,CO,"[3, 0, 0, 0, 1, 0, 0, 0, 0, 0, 1, 0, 0, 1, 0]",[Siexpl][Branch1_1][C][C][Branch1_1][C][C][Branch1_1][C][C][O][Branch1_1][C][C],[C][O],{[][<]*O[>][<]}{[>][<]*[Si](C)C[>][]},*O[Si](*)(C)C.CO,[Siexpl][Branch1_1][C][C][Branch1_1][C][C][Branch1_1][C][C][O][Branch1_1][C][C].[C][O],{[][<]*O[>][<]}{[>][<]*[Si](C)C[>][]}.CO
376,pdms,108.08219,8.0,methanol,29.6,99.0,35,9.0,0.497382199,0.308824,*O[Si](*)(C)C,CO,"[3, 0, 0, 0, 1, 0, 0, 0, 0, 0, 1, 0, 0, 1, 0]",[Siexpl][Branch1_1][C][C][Branch1_1][C][C][Branch1_1][C][C][O][Branch1_1][C][C],[C][O],{[][<]*O[>][<]}{[>][<]*[Si](C)C[>][]},*O[Si](*)(C)C.CO,[Siexpl][Branch1_1][C][C][Branch1_1][C][C][Branch1_1][C][C][O][Branch1_1][C][C].[C][O],{[][<]*O[>][<]}{[>][<]*[Si](C)C[>][]}.CO
377,pdms,108.08219,8.0,methanol,29.6,97.0,30,9.0,0.54973822,0.538462,*O[Si](*)(C)C,CO,"[3, 0, 0, 0, 1, 0, 0, 0, 0, 0, 1, 0, 0, 1, 0]",[Siexpl][Branch1_1][C][C][Branch1_1][C][C][Branch1_1][C][C][O][Branch1_1][C][C],[C][O],{[][<]*O[>][<]}{[>][<]*[Si](C)C[>][]},*O[Si](*)(C)C.CO,[Siexpl][Branch1_1][C][C][Branch1_1][C][C][Branch1_1][C][C][O][Branch1_1][C][C].[C][O],{[][<]*O[>][<]}{[>][<]*[Si](C)C[>][]}.CO
379,pdms,108.08219,8.0,methanol,29.6,99.7,40,9.0,0.641361257,0.138158,*O[Si](*)(C)C,CO,"[3, 0, 0, 0, 1, 0, 0, 0, 0, 0, 1, 0, 0, 1, 0]",[Siexpl][Branch1_1][C][C][Branch1_1][C][C][Branch1_1][C][C][O][Branch1_1][C][C],[C][O],{[][<]*O[>][<]}{[>][<]*[Si](C)C[>][]},*O[Si](*)(C)C.CO,[Siexpl][Branch1_1][C][C][Branch1_1][C][C][Branch1_1][C][C][O][Branch1_1][C][C].[C][O],{[][<]*O[>][<]}{[>][<]*[Si](C)C[>][]}.CO
380,pdms,108.08219,8.0,methanol,29.6,99.0,40,9.0,0.654450262,0.323077,*O[Si](*)(C)C,CO,"[3, 0, 0, 0, 1, 0, 0, 0, 0, 0, 1, 0, 0, 1, 0]",[Siexpl][Branch1_1][C][C][Branch1_1][C][C][Branch1_1][C][C][O][Branch1_1][C][C],[C][O],{[][<]*O[>][<]}{[>][<]*[Si](C)C[>][]},*O[Si](*)(C)C.CO,[Siexpl][Branch1_1][C][C][Branch1_1][C][C][Branch1_1][C][C][O][Branch1_1][C][C].[C][O],{[][<]*O[>][<]}{[>][<]*[Si](C)C[>][]}.CO
381,pdms,108.08219,8.0,methanol,29.6,97.0,35,9.0,0.732984293,0.567568,*O[Si](*)(C)C,CO,"[3, 0, 0, 0, 1, 0, 0, 0, 0, 0, 1, 0, 0, 1, 0]",[Siexpl][Branch1_1][C][C][Branch1_1][C][C][Branch1_1][C][C][O][Branch1_1][C][C],[C][O],{[][<]*O[>][<]}{[>][<]*[Si](C)C[>][]},*O[Si](*)(C)C.CO,[Siexpl][Branch1_1][C][C][Branch1_1][C][C][Branch1_1][C][C][O][Branch1_1][C][C].[C][O],{[][<]*O[>][<]}{[>][<]*[Si](C)C[>][]}.CO
382,pdms,108.08219,8.0,methanol,29.6,97.0,40,9.0,0.876963351,0.567568,*O[Si](*)(C)C,CO,"[3, 0, 0, 0, 1, 0, 0, 0, 0, 0, 1, 0, 0, 1, 0]",[Siexpl][Branch1_1][C][C][Branch1_1][C][C][Branch1_1][C][C][O][Branch1_1][C][C],[C][O],{[][<]*O[>][<]}{[>][<]*[Si](C)C[>][]},*O[Si](*)(C)C.CO,[Siexpl][Branch1_1][C][C][Branch1_1][C][C][Branch1_1][C][C][O][Branch1_1][C][C].[C][O],{[][<]*O[>][<]}{[>][<]*[Si](C)C[>][]}.CO
383,pdms,108.08219,8.0,methanol,29.6,99.0,45,9.0,0.994764398,0.344262,*O[Si](*)(C)C,CO,"[3, 0, 0, 0, 1, 0, 0, 0, 0, 0, 1, 0, 0, 1, 0]",[Siexpl][Branch1_1][C][C][Branch1_1][C][C][Branch1_1][C][C][O][Branch1_1][C][C],[C][O],{[][<]*O[>][<]}{[>][<]*[Si](C)C[>][]},*O[Si](*)(C)C.CO,[Siexpl][Branch1_1][C][C][Branch1_1][C][C][Branch1_1][C][C][O][Branch1_1][C][C].[C][O],{[][<]*O[>][<]}{[>][<]*[Si](C)C[>][]}.CO
384,pdms,108.08219,8.0,methanol,29.6,99.7,45,9.0,0.994764398,0.146853,*O[Si](*)(C)C,CO,"[3, 0, 0, 0, 1, 0, 0, 0, 0, 0, 1, 0, 0, 1, 0]",[Siexpl][Branch1_1][C][C][Branch1_1][C][C][Branch1_1][C][C][O][Branch1_1][C][C],[C][O],{[][<]*O[>][<]}{[>][<]*[Si](C)C[>][]},*O[Si](*)(C)C.CO,[Siexpl][Branch1_1][C][C][Branch1_1][C][C][Branch1_1][C][C][O][Branch1_1][C][C].[C][O],{[][<]*O[>][<]}{[>][<]*[Si](C)C[>][]}.CO
385,pdms,108.08219,8.0,methanol,29.6,97.0,45,9.0,1.544502618,0.6,*O[Si](*)(C)C,CO,"[3, 0, 0, 0, 1, 0, 0, 0, 0, 0, 1, 0, 0, 1, 0]",[Siexpl][Branch1_1][C][C][Branch1_1][C][C][Branch1_1][C][C][O][Branch1_1][C][C],[C][O],{[][<]*O[>][<]}{[>][<]*[Si](C)C[>][]},*O[Si](*)(C)C.CO,[Siexpl][Branch1_1][C][C][Branch1_1][C][C][Branch1_1][C][C][O][Branch1_1][C][C].[C][O],{[][<]*O[>][<]}{[>][<]*[Si](C)C[>][]}.CO
386,pdms,108.08219,8.0,methanol,29.6,99.7,50,9.0,1.64921466,0.15,*O[Si](*)(C)C,CO,"[3, 0, 0, 0, 1, 0, 0, 0, 0, 0, 1, 0, 0, 1, 0]",[Siexpl][Branch1_1][C][C][Branch1_1][C][C][Branch1_1][C][C][O][Branch1_1][C][C],[C][O],{[][<]*O[>][<]}{[>][<]*[Si](C)C[>][]},*O[Si](*)(C)C.CO,[Siexpl][Branch1_1][C][C][Branch1_1][C][C][Branch1_1][C][C][O][Branch1_1][C][C].[C][O],{[][<]*O[>][<]}{[>][<]*[Si](C)C[>][]}.CO
387,pdms,108.08219,8.0,methanol,29.6,99.0,50,9.0,1.727748691,0.355932,*O[Si](*)(C)C,CO,"[3, 0, 0, 0, 1, 0, 0, 0, 0, 0, 1, 0, 0, 1, 0]",[Siexpl][Branch1_1][C][C][Branch1_1][C][C][Branch1_1][C][C][O][Branch1_1][C][C],[C][O],{[][<]*O[>][<]}{[>][<]*[Si](C)C[>][]},*O[Si](*)(C)C.CO,[Siexpl][Branch1_1][C][C][Branch1_1][C][C][Branch1_1][C][C][O][Branch1_1][C][C].[C][O],{[][<]*O[>][<]}{[>][<]*[Si](C)C[>][]}.CO
388,pdms,108.08219,8.0,methanol,29.6,97.0,50,9.0,2.094240838,0.636364,*O[Si](*)(C)C,CO,"[3, 0, 0, 0, 1, 0, 0, 0, 0, 0, 1, 0, 0, 1, 0]",[Siexpl][Branch1_1][C][C][Branch1_1][C][C][Branch1_1][C][C][O][Branch1_1][C][C],[C][O],{[][<]*O[>][<]}{[>][<]*[Si](C)C[>][]},*O[Si](*)(C)C.CO,[Siexpl][Branch1_1][C][C][Branch1_1][C][C][Branch1_1][C][C][O][Branch1_1][C][C].[C][O],{[][<]*O[>][<]}{[>][<]*[Si](C)C[>][]}.CO
389,pdms,108.08219,8.0,methanol,29.6,99.7,30,9.0,0.368421053,0.130263,*O[Si](*)(C)C,CO,"[3, 0, 0, 0, 1, 0, 0, 0, 0, 0, 1, 0, 0, 1, 0]",[Siexpl][Branch1_1][C][C][Branch1_1][C][C][Branch1_1][C][C][O][Branch1_1][C][C],[C][O],{[][<]*O[>][<]}{[>][<]*[Si](C)C[>][]},*O[Si](*)(C)C.CO,[Siexpl][Branch1_1][C][C][Branch1_1][C][C][Branch1_1][C][C][O][Branch1_1][C][C].[C][O],{[][<]*O[>][<]}{[>][<]*[Si](C)C[>][]}.CO
390,pdms,108.08219,8.0,methanol,29.6,99.0,30,9.0,0.389473684,0.3,*O[Si](*)(C)C,CO,"[3, 0, 0, 0, 1, 0, 0, 0, 0, 0, 1, 0, 0, 1, 0]",[Siexpl][Branch1_1][C][C][Branch1_1][C][C][Branch1_1][C][C][O][Branch1_1][C][C],[C][O],{[][<]*O[>][<]}{[>][<]*[Si](C)C[>][]},*O[Si](*)(C)C.CO,[Siexpl][Branch1_1][C][C][Branch1_1][C][C][Branch1_1][C][C][O][Branch1_1][C][C].[C][O],{[][<]*O[>][<]}{[>][<]*[Si](C)C[>][]}.CO
391,pdms,108.08219,8.0,ethanol,26.5,99.7,30,9.0,0.515789474,0.341379,*O[Si](*)(C)C,CCO,"[3, 1, 0, 0, 1, 0, 0, 0, 0, 0, 1, 0, 0, 1, 0]",[Siexpl][Branch1_1][C][C][Branch1_1][C][C][Branch1_1][C][C][O][Branch1_1][C][C],[C][C][O],{[][<]*O[>][<]}{[>][<]*[Si](C)C[>][]},*O[Si](*)(C)C.CCO,[Siexpl][Branch1_1][C][C][Branch1_1][C][C][Branch1_1][C][C][O][Branch1_1][C][C].[C][C][O],{[][<]*O[>][<]}{[>][<]*[Si](C)C[>][]}.CCO
392,pdms,108.08219,8.0,methanol,29.6,97.0,30,9.0,0.547368421,0.55,*O[Si](*)(C)C,CO,"[3, 0, 0, 0, 1, 0, 0, 0, 0, 0, 1, 0, 0, 1, 0]",[Siexpl][Branch1_1][C][C][Branch1_1][C][C][Branch1_1][C][C][O][Branch1_1][C][C],[C][O],{[][<]*O[>][<]}{[>][<]*[Si](C)C[>][]},*O[Si](*)(C)C.CO,[Siexpl][Branch1_1][C][C][Branch1_1][C][C][Branch1_1][C][C][O][Branch1_1][C][C].[C][O],{[][<]*O[>][<]}{[>][<]*[Si](C)C[>][]}.CO
393,pdms,108.08219,8.0,ethanol,26.5,99.0,30,9.0,0.6,0.61875,*O[Si](*)(C)C,CCO,"[3, 1, 0, 0, 1, 0, 0, 0, 0, 0, 1, 0, 0, 1, 0]",[Siexpl][Branch1_1][C][C][Branch1_1][C][C][Branch1_1][C][C][O][Branch1_1][C][C],[C][C][O],{[][<]*O[>][<]}{[>][<]*[Si](C)C[>][]},*O[Si](*)(C)C.CCO,[Siexpl][Branch1_1][C][C][Branch1_1][C][C][Branch1_1][C][C][O][Branch1_1][C][C].[C][C][O],{[][<]*O[>][<]}{[>][<]*[Si](C)C[>][]}.CCO
394,pdms,108.08219,8.0,ethanol,26.5,97.0,30,9.0,0.905263158,0.9,*O[Si](*)(C)C,CCO,"[3, 1, 0, 0, 1, 0, 0, 0, 0, 0, 1, 0, 0, 1, 0]",[Siexpl][Branch1_1][C][C][Branch1_1][C][C][Branch1_1][C][C][O][Branch1_1][C][C],[C][C][O],{[][<]*O[>][<]}{[>][<]*[Si](C)C[>][]},*O[Si](*)(C)C.CCO,[Siexpl][Branch1_1][C][C][Branch1_1][C][C][Branch1_1][C][C][O][Branch1_1][C][C].[C][C][O],{[][<]*O[>][<]}{[>][<]*[Si](C)C[>][]}.CCO
395,chitosan,55.1,26.2,methanol,29.6,1.9,25,2.5,0.164018692,3.047847,NC2C(O)C(OC1OC(CO)C(O(C[*]))C(O)C1N)C(CO)OC2(C[*]),CO,"[1, 2, 10, 0, 5, 0, 2, 0, 0, 0, 4, 0, 0, 0, 0]",[N][C][C][Branch1_1][C][O][C][Branch2_1][Ring1][Branch2_1][O][C][O][C][Branch1_1][Ring1][C][O][C][Branch1_1][Branch1_1][O][Branch1_1][C][C][C][Branch1_1][C][O][C][Ring1][O][N][C][Branch1_1][Ring1][C][O][O][C][Ring2][Ring1][Branch1_2][Branch1_1][C][C],[C][O],{[][<]*C[>][<]}{[>][<]O[>][<]}{[>][<]NC1COC(CO)CC1O[>][<]}{[>][<]O[>][<]}{[>][<]NC1COC(CO)CC1O[>][<]}{[>][<]*C[>][]},NC2C(O)C(OC1OC(CO)C(O(C[*]))C(O)C1N)C(CO)OC2(C[*]).CO,[N][C][C][Branch1_1][C][O][C][Branch2_1][Ring1][Branch2_1][O][C][O][C][Branch1_1][Ring1][C][O][C][Branch1_1][Branch1_1][O][Branch1_1][C][C][C][Branch1_1][C][O][C][Ring1][O][N][C][Branch1_1][Ring1][C][O][O][C][Ring2][Ring1][Branch1_2][Branch1_1][C][C].[C][O],{[][<]*C[>][<]}{[>][<]O[>][<]}{[>][<]NC1COC(CO)CC1O[>][<]}{[>][<]O[>][<]}{[>][<]NC1COC(CO)CC1O[>][<]}{[>][<]*C[>][]}.CO
396,chitosan,55.1,26.2,methanol,29.6,5.0,25,2.5,0.189252336,3.181818,NC2C(O)C(OC1OC(CO)C(O(C[*]))C(O)C1N)C(CO)OC2(C[*]),CO,"[1, 2, 10, 0, 5, 0, 2, 0, 0, 0, 4, 0, 0, 0, 0]",[N][C][C][Branch1_1][C][O][C][Branch2_1][Ring1][Branch2_1][O][C][O][C][Branch1_1][Ring1][C][O][C][Branch1_1][Branch1_1][O][Branch1_1][C][C][C][Branch1_1][C][O][C][Ring1][O][N][C][Branch1_1][Ring1][C][O][O][C][Ring2][Ring1][Branch1_2][Branch1_1][C][C],[C][O],{[][<]*C[>][<]}{[>][<]O[>][<]}{[>][<]NC1COC(CO)CC1O[>][<]}{[>][<]O[>][<]}{[>][<]NC1COC(CO)CC1O[>][<]}{[>][<]*C[>][]},NC2C(O)C(OC1OC(CO)C(O(C[*]))C(O)C1N)C(CO)OC2(C[*]).CO,[N][C][C][Branch1_1][C][O][C][Branch2_1][Ring1][Branch2_1][O][C][O][C][Branch1_1][Ring1][C][O][C][Branch1_1][Branch1_1][O][Branch1_1][C][C][C][Branch1_1][C][O][C][Ring1][O][N][C][Branch1_1][Ring1][C][O][O][C][Ring2][Ring1][Branch1_2][Branch1_1][C][C].[C][O],{[][<]*C[>][<]}{[>][<]O[>][<]}{[>][<]NC1COC(CO)CC1O[>][<]}{[>][<]O[>][<]}{[>][<]NC1COC(CO)CC1O[>][<]}{[>][<]*C[>][]}.CO
398,chitosan,55.1,26.2,methanol,29.6,16.1,25,2.5,0.239719626,4.555024,NC2C(O)C(OC1OC(CO)C(O(C[*]))C(O)C1N)C(CO)OC2(C[*]),CO,"[1, 2, 10, 0, 5, 0, 2, 0, 0, 0, 4, 0, 0, 0, 0]",[N][C][C][Branch1_1][C][O][C][Branch2_1][Ring1][Branch2_1][O][C][O][C][Branch1_1][Ring1][C][O][C][Branch1_1][Branch1_1][O][Branch1_1][C][C][C][Branch1_1][C][O][C][Ring1][O][N][C][Branch1_1][Ring1][C][O][O][C][Ring2][Ring1][Branch1_2][Branch1_1][C][C],[C][O],{[][<]*C[>][<]}{[>][<]O[>][<]}{[>][<]NC1COC(CO)CC1O[>][<]}{[>][<]O[>][<]}{[>][<]NC1COC(CO)CC1O[>][<]}{[>][<]*C[>][]},NC2C(O)C(OC1OC(CO)C(O(C[*]))C(O)C1N)C(CO)OC2(C[*]).CO,[N][C][C][Branch1_1][C][O][C][Branch2_1][Ring1][Branch2_1][O][C][O][C][Branch1_1][Ring1][C][O][C][Branch1_1][Branch1_1][O][Branch1_1][C][C][C][Branch1_1][C][O][C][Ring1][O][N][C][Branch1_1][Ring1][C][O][O][C][Ring2][Ring1][Branch1_2][Branch1_1][C][C].[C][O],{[][<]*C[>][<]}{[>][<]O[>][<]}{[>][<]NC1COC(CO)CC1O[>][<]}{[>][<]O[>][<]}{[>][<]NC1COC(CO)CC1O[>][<]}{[>][<]*C[>][]}.CO
400,chitosan,55.1,26.2,methanol,29.6,1.9,35,2.5,0.285981308,3.215311,NC2C(O)C(OC1OC(CO)C(O(C[*]))C(O)C1N)C(CO)OC2(C[*]),CO,"[1, 2, 10, 0, 5, 0, 2, 0, 0, 0, 4, 0, 0, 0, 0]",[N][C][C][Branch1_1][C][O][C][Branch2_1][Ring1][Branch2_1][O][C][O][C][Branch1_1][Ring1][C][O][C][Branch1_1][Branch1_1][O][Branch1_1][C][C][C][Branch1_1][C][O][C][Ring1][O][N][C][Branch1_1][Ring1][C][O][O][C][Ring2][Ring1][Branch1_2][Branch1_1][C][C],[C][O],{[][<]*C[>][<]}{[>][<]O[>][<]}{[>][<]NC1COC(CO)CC1O[>][<]}{[>][<]O[>][<]}{[>][<]NC1COC(CO)CC1O[>][<]}{[>][<]*C[>][]},NC2C(O)C(OC1OC(CO)C(O(C[*]))C(O)C1N)C(CO)OC2(C[*]).CO,[N][C][C][Branch1_1][C][O][C][Branch2_1][Ring1][Branch2_1][O][C][O][C][Branch1_1][Ring1][C][O][C][Branch1_1][Branch1_1][O][Branch1_1][C][C][C][Branch1_1][C][O][C][Ring1][O][N][C][Branch1_1][Ring1][C][O][O][C][Ring2][Ring1][Branch1_2][Branch1_1][C][C].[C][O],{[][<]*C[>][<]}{[>][<]O[>][<]}{[>][<]NC1COC(CO)CC1O[>][<]}{[>][<]O[>][<]}{[>][<]NC1COC(CO)CC1O[>][<]}{[>][<]*C[>][]}.CO