Index,Polymer,Contact_angle,Thickness_um,Solvent,Solvent_solubility_parameter_Mpa_sqrt,xw_wt_percent,Temp_C,Permeate_pressure_mbar,J_Total_flux_kg_m_2h_1,a_Separation_factor_wo,Polymer_SMILES,Solvent_SMILES,Sum_of_frags,Polymer_SELFIES,Solvent_SELFIES,Polymer_BigSMILES,PS_SMILES,PS_SELFIES,PS_BigSMILES
243,peba,89.0,30.0,n-butanol,23.1,99.98103666,60,1.0,0.3125,0.02849,O=C(C(=O)OOC(=O)CCCCCCCCCCCN(CCCCO[*]))[*],CCCCO,"[2, 17, 0, 3, 1, 0, 0, 1, 0, 0, 3, 0, 0, 0, 0]",[C][Branch1_1][C][C][=O].[C][O][C][Branch1_1][C][C][=O].[C][O][C].[C][N][C][C][C][C][C][C][C][C][C][C][C][C][Branch1_1][C][C][=O].[C][C][C][C][C][O][C],[C][C][C][C][O],{[][<]*O[>][<]}{[>][<]C[>][<]}{[>][<]C[>][<]}{[>][<]C[>][<]}{[>][<]C[>][<]}{[>][<]N[>][<]}{[>][<]C[>][<]}{[>][<]C[>][<]}{[>][<]C[>][<]}{[>][<]C[>][<]}{[>][<]C[>][<]}{[>][<]C[>][<]}{[>][<]C[>][<]}{[>][<]C[>][<]}{[>][<]C[>][<]}{[>][<]C[>][<]}{[>][<]C[>][<]}{[>][<]C=O[>][<]}{[>][<]O[>][<]}{[>][<]O[>][<]}{[>][<]C=O[>][<]}{[>][<]*C=O[>][]},O=C(C(=O)OOC(=O)CCCCCCCCCCCN(CCCCO[*]))[*].CCCCO,[C][Branch1_1][C][C][=O].[C][O][C][Branch1_1][C][C][=O].[C][O][C].[C][N][C][C][C][C][C][C][C][C][C][C][C][C][Branch1_1][C][C][=O].[C][C][C][C][C][O][C].[C][C][C][C][O],{[][<]*O[>][<]}{[>][<]C[>][<]}{[>][<]C[>][<]}{[>][<]C[>][<]}{[>][<]C[>][<]}{[>][<]N[>][<]}{[>][<]C[>][<]}{[>][<]C[>][<]}{[>][<]C[>][<]}{[>][<]C[>][<]}{[>][<]C[>][<]}{[>][<]C[>][<]}{[>][<]C[>][<]}{[>][<]C[>][<]}{[>][<]C[>][<]}{[>][<]C[>][<]}{[>][<]C[>][<]}{[>][<]C=O[>][<]}{[>][<]O[>][<]}{[>][<]O[>][<]}{[>][<]C=O[>][<]}{[>][<]*C=O[>][]}.CCCCO
244,peba,89.0,30.0,n-butanol,23.1,99.96839444,60,1.0,0.327,0.029308,O=C(C(=O)OOC(=O)CCCCCCCCCCCN(CCCCO[*]))[*],CCCCO,"[2, 17, 0, 3, 1, 0, 0, 1, 0, 0, 3, 0, 0, 0, 0]",[C][Branch1_1][C][C][=O].[C][O][C][Branch1_1][C][C][=O].[C][O][C].[C][N][C][C][C][C][C][C][C][C][C][C][C][C][Branch1_1][C][C][=O].[C][C][C][C][C][O][C],[C][C][C][C][O],{[][<]*O[>][<]}{[>][<]C[>][<]}{[>][<]C[>][<]}{[>][<]C[>][<]}{[>][<]C[>][<]}{[>][<]N[>][<]}{[>][<]C[>][<]}{[>][<]C[>][<]}{[>][<]C[>][<]}{[>][<]C[>][<]}{[>][<]C[>][<]}{[>][<]C[>][<]}{[>][<]C[>][<]}{[>][<]C[>][<]}{[>][<]C[>][<]}{[>][<]C[>][<]}{[>][<]C[>][<]}{[>][<]C=O[>][<]}{[>][<]O[>][<]}{[>][<]O[>][<]}{[>][<]C=O[>][<]}{[>][<]*C=O[>][]},O=C(C(=O)OOC(=O)CCCCCCCCCCCN(CCCCO[*]))[*].CCCCO,[C][Branch1_1][C][C][=O].[C][O][C][Branch1_1][C][C][=O].[C][O][C].[C][N][C][C][C][C][C][C][C][C][C][C][C][C][Branch1_1][C][C][=O].[C][C][C][C][C][O][C].[C][C][C][C][O],{[][<]*O[>][<]}{[>][<]C[>][<]}{[>][<]C[>][<]}{[>][<]C[>][<]}{[>][<]C[>][<]}{[>][<]N[>][<]}{[>][<]C[>][<]}{[>][<]C[>][<]}{[>][<]C[>][<]}{[>][<]C[>][<]}{[>][<]C[>][<]}{[>][<]C[>][<]}{[>][<]C[>][<]}{[>][<]C[>][<]}{[>][<]C[>][<]}{[>][<]C[>][<]}{[>][<]C[>][<]}{[>][<]C=O[>][<]}{[>][<]O[>][<]}{[>][<]O[>][<]}{[>][<]C=O[>][<]}{[>][<]*C=O[>][]}.CCCCO
246,peba,89.0,30.0,n-butanol,23.1,99.80151707,60,1.0,0.4159,0.029539,O=C(C(=O)OOC(=O)CCCCCCCCCCCN(CCCCO[*]))[*],CCCCO,"[2, 17, 0, 3, 1, 0, 0, 1, 0, 0, 3, 0, 0, 0, 0]",[C][Branch1_1][C][C][=O].[C][O][C][Branch1_1][C][C][=O].[C][O][C].[C][N][C][C][C][C][C][C][C][C][C][C][C][C][Branch1_1][C][C][=O].[C][C][C][C][C][O][C],[C][C][C][C][O],{[][<]*O[>][<]}{[>][<]C[>][<]}{[>][<]C[>][<]}{[>][<]C[>][<]}{[>][<]C[>][<]}{[>][<]N[>][<]}{[>][<]C[>][<]}{[>][<]C[>][<]}{[>][<]C[>][<]}{[>][<]C[>][<]}{[>][<]C[>][<]}{[>][<]C[>][<]}{[>][<]C[>][<]}{[>][<]C[>][<]}{[>][<]C[>][<]}{[>][<]C[>][<]}{[>][<]C[>][<]}{[>][<]C=O[>][<]}{[>][<]O[>][<]}{[>][<]O[>][<]}{[>][<]C=O[>][<]}{[>][<]*C=O[>][]},O=C(C(=O)OOC(=O)CCCCCCCCCCCN(CCCCO[*]))[*].CCCCO,[C][Branch1_1][C][C][=O].[C][O][C][Branch1_1][C][C][=O].[C][O][C].[C][N][C][C][C][C][C][C][C][C][C][C][C][C][Branch1_1][C][C][=O].[C][C][C][C][C][O][C].[C][C][C][C][O],{[][<]*O[>][<]}{[>][<]C[>][<]}{[>][<]C[>][<]}{[>][<]C[>][<]}{[>][<]C[>][<]}{[>][<]N[>][<]}{[>][<]C[>][<]}{[>][<]C[>][<]}{[>][<]C[>][<]}{[>][<]C[>][<]}{[>][<]C[>][<]}{[>][<]C[>][<]}{[>][<]C[>][<]}{[>][<]C[>][<]}{[>][<]C[>][<]}{[>][<]C[>][<]}{[>][<]C[>][<]}{[>][<]C=O[>][<]}{[>][<]O[>][<]}{[>][<]O[>][<]}{[>][<]C=O[>][<]}{[>][<]*C=O[>][]}.CCCCO
247,peba,89.0,30.0,n-butanol,23.1,99.92667509,60,1.0,0.3932,0.029933,O=C(C(=O)OOC(=O)CCCCCCCCCCCN(CCCCO[*]))[*],CCCCO,"[2, 17, 0, 3, 1, 0, 0, 1, 0, 0, 3, 0, 0, 0, 0]",[C][Branch1_1][C][C][=O].[C][O][C][Branch1_1][C][C][=O].[C][O][C].[C][N][C][C][C][C][C][C][C][C][C][C][C][C][Branch1_1][C][C][=O].[C][C][C][C][C][O][C],[C][C][C][C][O],{[][<]*O[>][<]}{[>][<]C[>][<]}{[>][<]C[>][<]}{[>][<]C[>][<]}{[>][<]C[>][<]}{[>][<]N[>][<]}{[>][<]C[>][<]}{[>][<]C[>][<]}{[>][<]C[>][<]}{[>][<]C[>][<]}{[>][<]C[>][<]}{[>][<]C[>][<]}{[>][<]C[>][<]}{[>][<]C[>][<]}{[>][<]C[>][<]}{[>][<]C[>][<]}{[>][<]C[>][<]}{[>][<]C=O[>][<]}{[>][<]O[>][<]}{[>][<]O[>][<]}{[>][<]C=O[>][<]}{[>][<]*C=O[>][]},O=C(C(=O)OOC(=O)CCCCCCCCCCCN(CCCCO[*]))[*].CCCCO,[C][Branch1_1][C][C][=O].[C][O][C][Branch1_1][C][C][=O].[C][O][C].[C][N][C][C][C][C][C][C][C][C][C][C][C][C][Branch1_1][C][C][=O].[C][C][C][C][C][O][C].[C][C][C][C][O],{[][<]*O[>][<]}{[>][<]C[>][<]}{[>][<]C[>][<]}{[>][<]C[>][<]}{[>][<]C[>][<]}{[>][<]N[>][<]}{[>][<]C[>][<]}{[>][<]C[>][<]}{[>][<]C[>][<]}{[>][<]C[>][<]}{[>][<]C[>][<]}{[>][<]C[>][<]}{[>][<]C[>][<]}{[>][<]C[>][<]}{[>][<]C[>][<]}{[>][<]C[>][<]}{[>][<]C[>][<]}{[>][<]C=O[>][<]}{[>][<]O[>][<]}{[>][<]O[>][<]}{[>][<]C=O[>][<]}{[>][<]*C=O[>][]}.CCCCO
249,peba,89.0,30.0,n-butanol,23.1,99.98988622,50,1.0,0.1459,0.031443,O=C(C(=O)OOC(=O)CCCCCCCCCCCN(CCCCO[*]))[*],CCCCO,"[2, 17, 0, 3, 1, 0, 0, 1, 0, 0, 3, 0, 0, 0, 0]",[C][Branch1_1][C][C][=O].[C][O][C][Branch1_1][C][C][=O].[C][O][C].[C][N][C][C][C][C][C][C][C][C][C][C][C][C][Branch1_1][C][C][=O].[C][C][C][C][C][O][C],[C][C][C][C][O],{[][<]*O[>][<]}{[>][<]C[>][<]}{[>][<]C[>][<]}{[>][<]C[>][<]}{[>][<]C[>][<]}{[>][<]N[>][<]}{[>][<]C[>][<]}{[>][<]C[>][<]}{[>][<]C[>][<]}{[>][<]C[>][<]}{[>][<]C[>][<]}{[>][<]C[>][<]}{[>][<]C[>][<]}{[>][<]C[>][<]}{[>][<]C[>][<]}{[>][<]C[>][<]}{[>][<]C[>][<]}{[>][<]C=O[>][<]}{[>][<]O[>][<]}{[>][<]O[>][<]}{[>][<]C=O[>][<]}{[>][<]*C=O[>][]},O=C(C(=O)OOC(=O)CCCCCCCCCCCN(CCCCO[*]))[*].CCCCO,[C][Branch1_1][C][C][=O].[C][O][C][Branch1_1][C][C][=O].[C][O][C].[C][N][C][C][C][C][C][C][C][C][C][C][C][C][Branch1_1][C][C][=O].[C][C][C][C][C][O][C].[C][C][C][C][O],{[][<]*O[>][<]}{[>][<]C[>][<]}{[>][<]C[>][<]}{[>][<]C[>][<]}{[>][<]C[>][<]}{[>][<]N[>][<]}{[>][<]C[>][<]}{[>][<]C[>][<]}{[>][<]C[>][<]}{[>][<]C[>][<]}{[>][<]C[>][<]}{[>][<]C[>][<]}{[>][<]C[>][<]}{[>][<]C[>][<]}{[>][<]C[>][<]}{[>][<]C[>][<]}{[>][<]C[>][<]}{[>][<]C=O[>][<]}{[>][<]O[>][<]}{[>][<]O[>][<]}{[>][<]C=O[>][<]}{[>][<]*C=O[>][]}.CCCCO
250,peba,89.0,30.0,n-butanol,23.1,99.8369153,60,1.0,0.4473,0.03162,O=C(C(=O)OOC(=O)CCCCCCCCCCCN(CCCCO[*]))[*],CCCCO,"[2, 17, 0, 3, 1, 0, 0, 1, 0, 0, 3, 0, 0, 0, 0]",[C][Branch1_1][C][C][=O].[C][O][C][Branch1_1][C][C][=O].[C][O][C].[C][N][C][C][C][C][C][C][C][C][C][C][C][C][Branch1_1][C][C][=O].[C][C][C][C][C][O][C],[C][C][C][C][O],{[][<]*O[>][<]}{[>][<]C[>][<]}{[>][<]C[>][<]}{[>][<]C[>][<]}{[>][<]C[>][<]}{[>][<]N[>][<]}{[>][<]C[>][<]}{[>][<]C[>][<]}{[>][<]C[>][<]}{[>][<]C[>][<]}{[>][<]C[>][<]}{[>][<]C[>][<]}{[>][<]C[>][<]}{[>][<]C[>][<]}{[>][<]C[>][<]}{[>][<]C[>][<]}{[>][<]C[>][<]}{[>][<]C=O[>][<]}{[>][<]O[>][<]}{[>][<]O[>][<]}{[>][<]C=O[>][<]}{[>][<]*C=O[>][]},O=C(C(=O)OOC(=O)CCCCCCCCCCCN(CCCCO[*]))[*].CCCCO,[C][Branch1_1][C][C][=O].[C][O][C][Branch1_1][C][C][=O].[C][O][C].[C][N][C][C][C][C][C][C][C][C][C][C][C][C][Branch1_1][C][C][=O].[C][C][C][C][C][O][C].[C][C][C][C][O],{[][<]*O[>][<]}{[>][<]C[>][<]}{[>][<]C[>][<]}{[>][<]C[>][<]}{[>][<]C[>][<]}{[>][<]N[>][<]}{[>][<]C[>][<]}{[>][<]C[>][<]}{[>][<]C[>][<]}{[>][<]C[>][<]}{[>][<]C[>][<]}{[>][<]C[>][<]}{[>][<]C[>][<]}{[>][<]C[>][<]}{[>][<]C[>][<]}{[>][<]C[>][<]}{[>][<]C[>][<]}{[>][<]C=O[>][<]}{[>][<]O[>][<]}{[>][<]O[>][<]}{[>][<]C=O[>][<]}{[>][<]*C=O[>][]}.CCCCO
251,peba,89.0,30.0,n-butanol,23.1,99.69279393,60,1.0,0.4877,0.03198,O=C(C(=O)OOC(=O)CCCCCCCCCCCN(CCCCO[*]))[*],CCCCO,"[2, 17, 0, 3, 1, 0, 0, 1, 0, 0, 3, 0, 0, 0, 0]",[C][Branch1_1][C][C][=O].[C][O][C][Branch1_1][C][C][=O].[C][O][C].[C][N][C][C][C][C][C][C][C][C][C][C][C][C][Branch1_1][C][C][=O].[C][C][C][C][C][O][C],[C][C][C][C][O],{[][<]*O[>][<]}{[>][<]C[>][<]}{[>][<]C[>][<]}{[>][<]C[>][<]}{[>][<]C[>][<]}{[>][<]N[>][<]}{[>][<]C[>][<]}{[>][<]C[>][<]}{[>][<]C[>][<]}{[>][<]C[>][<]}{[>][<]C[>][<]}{[>][<]C[>][<]}{[>][<]C[>][<]}{[>][<]C[>][<]}{[>][<]C[>][<]}{[>][<]C[>][<]}{[>][<]C[>][<]}{[>][<]C=O[>][<]}{[>][<]O[>][<]}{[>][<]O[>][<]}{[>][<]C=O[>][<]}{[>][<]*C=O[>][]},O=C(C(=O)OOC(=O)CCCCCCCCCCCN(CCCCO[*]))[*].CCCCO,[C][Branch1_1][C][C][=O].[C][O][C][Branch1_1][C][C][=O].[C][O][C].[C][N][C][C][C][C][C][C][C][C][C][C][C][C][Branch1_1][C][C][=O].[C][C][C][C][C][O][C].[C][C][C][C][O],{[][<]*O[>][<]}{[>][<]C[>][<]}{[>][<]C[>][<]}{[>][<]C[>][<]}{[>][<]C[>][<]}{[>][<]N[>][<]}{[>][<]C[>][<]}{[>][<]C[>][<]}{[>][<]C[>][<]}{[>][<]C[>][<]}{[>][<]C[>][<]}{[>][<]C[>][<]}{[>][<]C[>][<]}{[>][<]C[>][<]}{[>][<]C[>][<]}{[>][<]C[>][<]}{[>][<]C[>][<]}{[>][<]C=O[>][<]}{[>][<]O[>][<]}{[>][<]O[>][<]}{[>][<]C=O[>][<]}{[>][<]*C=O[>][]}.CCCCO
252,peba,89.0,30.0,n-butanol,23.1,99.59924147,60,1.0,0.5038,0.032256,O=C(C(=O)OOC(=O)CCCCCCCCCCCN(CCCCO[*]))[*],CCCCO,"[2, 17, 0, 3, 1, 0, 0, 1, 0, 0, 3, 0, 0, 0, 0]",[C][Branch1_1][C][C][=O].[C][O][C][Branch1_1][C][C][=O].[C][O][C].[C][N][C][C][C][C][C][C][C][C][C][C][C][C][Branch1_1][C][C][=O].[C][C][C][C][C][O][C],[C][C][C][C][O],{[][<]*O[>][<]}{[>][<]C[>][<]}{[>][<]C[>][<]}{[>][<]C[>][<]}{[>][<]C[>][<]}{[>][<]N[>][<]}{[>][<]C[>][<]}{[>][<]C[>][<]}{[>][<]C[>][<]}{[>][<]C[>][<]}{[>][<]C[>][<]}{[>][<]C[>][<]}{[>][<]C[>][<]}{[>][<]C[>][<]}{[>][<]C[>][<]}{[>][<]C[>][<]}{[>][<]C[>][<]}{[>][<]C=O[>][<]}{[>][<]O[>][<]}{[>][<]O[>][<]}{[>][<]C=O[>][<]}{[>][<]*C=O[>][]},O=C(C(=O)OOC(=O)CCCCCCCCCCCN(CCCCO[*]))[*].CCCCO,[C][Branch1_1][C][C][=O].[C][O][C][Branch1_1][C][C][=O].[C][O][C].[C][N][C][C][C][C][C][C][C][C][C][C][C][C][Branch1_1][C][C][=O].[C][C][C][C][C][O][C].[C][C][C][C][O],{[][<]*O[>][<]}{[>][<]C[>][<]}{[>][<]C[>][<]}{[>][<]C[>][<]}{[>][<]C[>][<]}{[>][<]N[>][<]}{[>][<]C[>][<]}{[>][<]C[>][<]}{[>][<]C[>][<]}{[>][<]C[>][<]}{[>][<]C[>][<]}{[>][<]C[>][<]}{[>][<]C[>][<]}{[>][<]C[>][<]}{[>][<]C[>][<]}{[>][<]C[>][<]}{[>][<]C[>][<]}{[>][<]C=O[>][<]}{[>][<]O[>][<]}{[>][<]O[>][<]}{[>][<]C=O[>][<]}{[>][<]*C=O[>][]}.CCCCO
253,peba,89.0,30.0,n-butanol,23.1,99.96839444,50,1.0,0.1833,0.03381,O=C(C(=O)OOC(=O)CCCCCCCCCCCN(CCCCO[*]))[*],CCCCO,"[2, 17, 0, 3, 1, 0, 0, 1, 0, 0, 3, 0, 0, 0, 0]",[C][Branch1_1][C][C][=O].[C][O][C][Branch1_1][C][C][=O].[C][O][C].[C][N][C][C][C][C][C][C][C][C][C][C][C][C][Branch1_1][C][C][=O].[C][C][C][C][C][O][C],[C][C][C][C][O],{[][<]*O[>][<]}{[>][<]C[>][<]}{[>][<]C[>][<]}{[>][<]C[>][<]}{[>][<]C[>][<]}{[>][<]N[>][<]}{[>][<]C[>][<]}{[>][<]C[>][<]}{[>][<]C[>][<]}{[>][<]C[>][<]}{[>][<]C[>][<]}{[>][<]C[>][<]}{[>][<]C[>][<]}{[>][<]C[>][<]}{[>][<]C[>][<]}{[>][<]C[>][<]}{[>][<]C[>][<]}{[>][<]C=O[>][<]}{[>][<]O[>][<]}{[>][<]O[>][<]}{[>][<]C=O[>][<]}{[>][<]*C=O[>][]},O=C(C(=O)OOC(=O)CCCCCCCCCCCN(CCCCO[*]))[*].CCCCO,[C][Branch1_1][C][C][=O].[C][O][C][Branch1_1][C][C][=O].[C][O][C].[C][N][C][C][C][C][C][C][C][C][C][C][C][C][Branch1_1][C][C][=O].[C][C][C][C][C][O][C].[C][C][C][C][O],{[][<]*O[>][<]}{[>][<]C[>][<]}{[>][<]C[>][<]}{[>][<]C[>][<]}{[>][<]C[>][<]}{[>][<]N[>][<]}{[>][<]C[>][<]}{[>][<]C[>][<]}{[>][<]C[>][<]}{[>][<]C[>][<]}{[>][<]C[>][<]}{[>][<]C[>][<]}{[>][<]C[>][<]}{[>][<]C[>][<]}{[>][<]C[>][<]}{[>][<]C[>][<]}{[>][<]C[>][<]}{[>][<]C=O[>][<]}{[>][<]O[>][<]}{[>][<]O[>][<]}{[>][<]C=O[>][<]}{[>][<]*C=O[>][]}.CCCCO
254,peba,89.0,30.0,n-butanol,23.1,99.988622,50,1.0,0.1839,0.035299,O=C(C(=O)OOC(=O)CCCCCCCCCCCN(CCCCO[*]))[*],CCCCO,"[2, 17, 0, 3, 1, 0, 0, 1, 0, 0, 3, 0, 0, 0, 0]",[C][Branch1_1][C][C][=O].[C][O][C][Branch1_1][C][C][=O].[C][O][C].[C][N][C][C][C][C][C][C][C][C][C][C][C][C][Branch1_1][C][C][=O].[C][C][C][C][C][O][C],[C][C][C][C][O],{[][<]*O[>][<]}{[>][<]C[>][<]}{[>][<]C[>][<]}{[>][<]C[>][<]}{[>][<]C[>][<]}{[>][<]N[>][<]}{[>][<]C[>][<]}{[>][<]C[>][<]}{[>][<]C[>][<]}{[>][<]C[>][<]}{[>][<]C[>][<]}{[>][<]C[>][<]}{[>][<]C[>][<]}{[>][<]C[>][<]}{[>][<]C[>][<]}{[>][<]C[>][<]}{[>][<]C[>][<]}{[>][<]C=O[>][<]}{[>][<]O[>][<]}{[>][<]O[>][<]}{[>][<]C=O[>][<]}{[>][<]*C=O[>][]},O=C(C(=O)OOC(=O)CCCCCCCCCCCN(CCCCO[*]))[*].CCCCO,[C][Branch1_1][C][C][=O].[C][O][C][Branch1_1][C][C][=O].[C][O][C].[C][N][C][C][C][C][C][C][C][C][C][C][C][C][Branch1_1][C][C][=O].[C][C][C][C][C][O][C].[C][C][C][C][O],{[][<]*O[>][<]}{[>][<]C[>][<]}{[>][<]C[>][<]}{[>][<]C[>][<]}{[>][<]C[>][<]}{[>][<]N[>][<]}{[>][<]C[>][<]}{[>][<]C[>][<]}{[>][<]C[>][<]}{[>][<]C[>][<]}{[>][<]C[>][<]}{[>][<]C[>][<]}{[>][<]C[>][<]}{[>][<]C[>][<]}{[>][<]C[>][<]}{[>][<]C[>][<]}{[>][<]C[>][<]}{[>][<]C=O[>][<]}{[>][<]O[>][<]}{[>][<]O[>][<]}{[>][<]C=O[>][<]}{[>][<]*C=O[>][]}.CCCCO
255,peba,89.0,30.0,n-butanol,23.1,99.94437421,50,1.0,0.2388,0.035748,O=C(C(=O)OOC(=O)CCCCCCCCCCCN(CCCCO[*]))[*],CCCCO,"[2, 17, 0, 3, 1, 0, 0, 1, 0, 0, 3, 0, 0, 0, 0]",[C][Branch1_1][C][C][=O].[C][O][C][Branch1_1][C][C][=O].[C][O][C].[C][N][C][C][C][C][C][C][C][C][C][C][C][C][Branch1_1][C][C][=O].[C][C][C][C][C][O][C],[C][C][C][C][O],{[][<]*O[>][<]}{[>][<]C[>][<]}{[>][<]C[>][<]}{[>][<]C[>][<]}{[>][<]C[>][<]}{[>][<]N[>][<]}{[>][<]C[>][<]}{[>][<]C[>][<]}{[>][<]C[>][<]}{[>][<]C[>][<]}{[>][<]C[>][<]}{[>][<]C[>][<]}{[>][<]C[>][<]}{[>][<]C[>][<]}{[>][<]C[>][<]}{[>][<]C[>][<]}{[>][<]C[>][<]}{[>][<]C=O[>][<]}{[>][<]O[>][<]}{[>][<]O[>][<]}{[>][<]C=O[>][<]}{[>][<]*C=O[>][]},O=C(C(=O)OOC(=O)CCCCCCCCCCCN(CCCCO[*]))[*].CCCCO,[C][Branch1_1][C][C][=O].[C][O][C][Branch1_1][C][C][=O].[C][O][C].[C][N][C][C][C][C][C][C][C][C][C][C][C][C][Branch1_1][C][C][=O].[C][C][C][C][C][O][C].[C][C][C][C][O],{[][<]*O[>][<]}{[>][<]C[>][<]}{[>][<]C[>][<]}{[>][<]C[>][<]}{[>][<]C[>][<]}{[>][<]N[>][<]}{[>][<]C[>][<]}{[>][<]C[>][<]}{[>][<]C[>][<]}{[>][<]C[>][<]}{[>][<]C[>][<]}{[>][<]C[>][<]}{[>][<]C[>][<]}{[>][<]C[>][<]}{[>][<]C[>][<]}{[>][<]C[>][<]}{[>][<]C[>][<]}{[>][<]C=O[>][<]}{[>][<]O[>][<]}{[>][<]O[>][<]}{[>][<]C=O[>][<]}{[>][<]*C=O[>][]}.CCCCO
256,peba,89.0,30.0,n-butanol,23.1,99.89380531,50,1.0,0.2986,0.037417,O=C(C(=O)OOC(=O)CCCCCCCCCCCN(CCCCO[*]))[*],CCCCO,"[2, 17, 0, 3, 1, 0, 0, 1, 0, 0, 3, 0, 0, 0, 0]",[C][Branch1_1][C][C][=O].[C][O][C][Branch1_1][C][C][=O].[C][O][C].[C][N][C][C][C][C][C][C][C][C][C][C][C][C][Branch1_1][C][C][=O].[C][C][C][C][C][O][C],[C][C][C][C][O],{[][<]*O[>][<]}{[>][<]C[>][<]}{[>][<]C[>][<]}{[>][<]C[>][<]}{[>][<]C[>][<]}{[>][<]N[>][<]}{[>][<]C[>][<]}{[>][<]C[>][<]}{[>][<]C[>][<]}{[>][<]C[>][<]}{[>][<]C[>][<]}{[>][<]C[>][<]}{[>][<]C[>][<]}{[>][<]C[>][<]}{[>][<]C[>][<]}{[>][<]C[>][<]}{[>][<]C[>][<]}{[>][<]C=O[>][<]}{[>][<]O[>][<]}{[>][<]O[>][<]}{[>][<]C=O[>][<]}{[>][<]*C=O[>][]},O=C(C(=O)OOC(=O)CCCCCCCCCCCN(CCCCO[*]))[*].CCCCO,[C][Branch1_1][C][C][=O].[C][O][C][Branch1_1][C][C][=O].[C][O][C].[C][N][C][C][C][C][C][C][C][C][C][C][C][C][Branch1_1][C][C][=O].[C][C][C][C][C][O][C].[C][C][C][C][O],{[][<]*O[>][<]}{[>][<]C[>][<]}{[>][<]C[>][<]}{[>][<]C[>][<]}{[>][<]C[>][<]}{[>][<]N[>][<]}{[>][<]C[>][<]}{[>][<]C[>][<]}{[>][<]C[>][<]}{[>][<]C[>][<]}{[>][<]C[>][<]}{[>][<]C[>][<]}{[>][<]C[>][<]}{[>][<]C[>][<]}{[>][<]C[>][<]}{[>][<]C[>][<]}{[>][<]C[>][<]}{[>][<]C=O[>][<]}{[>][<]O[>][<]}{[>][<]O[>][<]}{[>][<]C=O[>][<]}{[>][<]*C=O[>][]}.CCCCO
257,peba,89.0,30.0,n-butanol,23.1,99.77496839,50,1.0,0.3586,0.039248,O=C(C(=O)OOC(=O)CCCCCCCCCCCN(CCCCO[*]))[*],CCCCO,"[2, 17, 0, 3, 1, 0, 0, 1, 0, 0, 3, 0, 0, 0, 0]",[C][Branch1_1][C][C][=O].[C][O][C][Branch1_1][C][C][=O].[C][O][C].[C][N][C][C][C][C][C][C][C][C][C][C][C][C][Branch1_1][C][C][=O].[C][C][C][C][C][O][C],[C][C][C][C][O],{[][<]*O[>][<]}{[>][<]C[>][<]}{[>][<]C[>][<]}{[>][<]C[>][<]}{[>][<]C[>][<]}{[>][<]N[>][<]}{[>][<]C[>][<]}{[>][<]C[>][<]}{[>][<]C[>][<]}{[>][<]C[>][<]}{[>][<]C[>][<]}{[>][<]C[>][<]}{[>][<]C[>][<]}{[>][<]C[>][<]}{[>][<]C[>][<]}{[>][<]C[>][<]}{[>][<]C[>][<]}{[>][<]C=O[>][<]}{[>][<]O[>][<]}{[>][<]O[>][<]}{[>][<]C=O[>][<]}{[>][<]*C=O[>][]},O=C(C(=O)OOC(=O)CCCCCCCCCCCN(CCCCO[*]))[*].CCCCO,[C][Branch1_1][C][C][=O].[C][O][C][Branch1_1][C][C][=O].[C][O][C].[C][N][C][C][C][C][C][C][C][C][C][C][C][C][Branch1_1][C][C][=O].[C][C][C][C][C][O][C].[C][C][C][C][O],{[][<]*O[>][<]}{[>][<]C[>][<]}{[>][<]C[>][<]}{[>][<]C[>][<]}{[>][<]C[>][<]}{[>][<]N[>][<]}{[>][<]C[>][<]}{[>][<]C[>][<]}{[>][<]C[>][<]}{[>][<]C[>][<]}{[>][<]C[>][<]}{[>][<]C[>][<]}{[>][<]C[>][<]}{[>][<]C[>][<]}{[>][<]C[>][<]}{[>][<]C[>][<]}{[>][<]C[>][<]}{[>][<]C=O[>][<]}{[>][<]O[>][<]}{[>][<]O[>][<]}{[>][<]C=O[>][<]}{[>][<]*C=O[>][]}.CCCCO
258,peba,89.0,30.0,n-butanol,23.1,99.92667509,50,1.0,0.2495,0.039805,O=C(C(=O)OOC(=O)CCCCCCCCCCCN(CCCCO[*]))[*],CCCCO,"[2, 17, 0, 3, 1, 0, 0, 1, 0, 0, 3, 0, 0, 0, 0]",[C][Branch1_1][C][C][=O].[C][O][C][Branch1_1][C][C][=O].[C][O][C].[C][N][C][C][C][C][C][C][C][C][C][C][C][C][Branch1_1][C][C][=O].[C][C][C][C][C][O][C],[C][C][C][C][O],{[][<]*O[>][<]}{[>][<]C[>][<]}{[>][<]C[>][<]}{[>][<]C[>][<]}{[>][<]C[>][<]}{[>][<]N[>][<]}{[>][<]C[>][<]}{[>][<]C[>][<]}{[>][<]C[>][<]}{[>][<]C[>][<]}{[>][<]C[>][<]}{[>][<]C[>][<]}{[>][<]C[>][<]}{[>][<]C[>][<]}{[>][<]C[>][<]}{[>][<]C[>][<]}{[>][<]C[>][<]}{[>][<]C=O[>][<]}{[>][<]O[>][<]}{[>][<]O[>][<]}{[>][<]C=O[>][<]}{[>][<]*C=O[>][]},O=C(C(=O)OOC(=O)CCCCCCCCCCCN(CCCCO[*]))[*].CCCCO,[C][Branch1_1][C][C][=O].[C][O][C][Branch1_1][C][C][=O].[C][O][C].[C][N][C][C][C][C][C][C][C][C][C][C][C][C][Branch1_1][C][C][=O].[C][C][C][C][C][O][C].[C][C][C][C][O],{[][<]*O[>][<]}{[>][<]C[>][<]}{[>][<]C[>][<]}{[>][<]C[>][<]}{[>][<]C[>][<]}{[>][<]N[>][<]}{[>][<]C[>][<]}{[>][<]C[>][<]}{[>][<]C[>][<]}{[>][<]C[>][<]}{[>][<]C[>][<]}{[>][<]C[>][<]}{[>][<]C[>][<]}{[>][<]C[>][<]}{[>][<]C[>][<]}{[>][<]C[>][<]}{[>][<]C[>][<]}{[>][<]C=O[>][<]}{[>][<]O[>][<]}{[>][<]O[>][<]}{[>][<]C=O[>][<]}{[>][<]*C=O[>][]}.CCCCO
259,peba,89.0,30.0,n-butanol,23.1,99.84197219,50,1.0,0.3445,0.040089,O=C(C(=O)OOC(=O)CCCCCCCCCCCN(CCCCO[*]))[*],CCCCO,"[2, 17, 0, 3, 1, 0, 0, 1, 0, 0, 3, 0, 0, 0, 0]",[C][Branch1_1][C][C][=O].[C][O][C][Branch1_1][C][C][=O].[C][O][C].[C][N][C][C][C][C][C][C][C][C][C][C][C][C][Branch1_1][C][C][=O].[C][C][C][C][C][O][C],[C][C][C][C][O],{[][<]*O[>][<]}{[>][<]C[>][<]}{[>][<]C[>][<]}{[>][<]C[>][<]}{[>][<]C[>][<]}{[>][<]N[>][<]}{[>][<]C[>][<]}{[>][<]C[>][<]}{[>][<]C[>][<]}{[>][<]C[>][<]}{[>][<]C[>][<]}{[>][<]C[>][<]}{[>][<]C[>][<]}{[>][<]C[>][<]}{[>][<]C[>][<]}{[>][<]C[>][<]}{[>][<]C[>][<]}{[>][<]C=O[>][<]}{[>][<]O[>][<]}{[>][<]O[>][<]}{[>][<]C=O[>][<]}{[>][<]*C=O[>][]},O=C(C(=O)OOC(=O)CCCCCCCCCCCN(CCCCO[*]))[*].CCCCO,[C][Branch1_1][C][C][=O].[C][O][C][Branch1_1][C][C][=O].[C][O][C].[C][N][C][C][C][C][C][C][C][C][C][C][C][C][Branch1_1][C][C][=O].[C][C][C][C][C][O][C].[C][C][C][C][O],{[][<]*O[>][<]}{[>][<]C[>][<]}{[>][<]C[>][<]}{[>][<]C[>][<]}{[>][<]C[>][<]}{[>][<]N[>][<]}{[>][<]C[>][<]}{[>][<]C[>][<]}{[>][<]C[>][<]}{[>][<]C[>][<]}{[>][<]C[>][<]}{[>][<]C[>][<]}{[>][<]C[>][<]}{[>][<]C[>][<]}{[>][<]C[>][<]}{[>][<]C[>][<]}{[>][<]C[>][<]}{[>][<]C=O[>][<]}{[>][<]O[>][<]}{[>][<]O[>][<]}{[>][<]C=O[>][<]}{[>][<]*C=O[>][]}.CCCCO