Index,Polymer,Contact_angle,Thickness_um,Solvent,Solvent_solubility_parameter_Mpa_sqrt,xw_wt_percent,Temp_C,Permeate_pressure_mbar,J_Total_flux_kg_m_2h_1,a_Separation_factor_wo,Polymer_SMILES,Solvent_SMILES,Sum_of_frags,Polymer_SELFIES,Solvent_SELFIES,Polymer_BigSMILES,PS_SMILES,PS_SELFIES,PS_BigSMILES
278,peba,89.0,30.0,n-butanol,23.1,99.70417193,29,1.0,0.1348,0.081341,O=C(C(=O)OOC(=O)CCCCCCCCCCCN(CCCCO[*]))[*],CCCCO,"[2, 17, 0, 3, 1, 0, 0, 1, 0, 0, 3, 0, 0, 0, 0]",[C][Branch1_1][C][C][=O].[C][O][C][Branch1_1][C][C][=O].[C][O][C].[C][N][C][C][C][C][C][C][C][C][C][C][C][C][Branch1_1][C][C][=O].[C][C][C][C][C][O][C],[C][C][C][C][O],{[][<]*O[>][<]}{[>][<]C[>][<]}{[>][<]C[>][<]}{[>][<]C[>][<]}{[>][<]C[>][<]}{[>][<]N[>][<]}{[>][<]C[>][<]}{[>][<]C[>][<]}{[>][<]C[>][<]}{[>][<]C[>][<]}{[>][<]C[>][<]}{[>][<]C[>][<]}{[>][<]C[>][<]}{[>][<]C[>][<]}{[>][<]C[>][<]}{[>][<]C[>][<]}{[>][<]C[>][<]}{[>][<]C=O[>][<]}{[>][<]O[>][<]}{[>][<]O[>][<]}{[>][<]C=O[>][<]}{[>][<]*C=O[>][]},O=C(C(=O)OOC(=O)CCCCCCCCCCCN(CCCCO[*]))[*].CCCCO,[C][Branch1_1][C][C][=O].[C][O][C][Branch1_1][C][C][=O].[C][O][C].[C][N][C][C][C][C][C][C][C][C][C][C][C][C][Branch1_1][C][C][=O].[C][C][C][C][C][O][C].[C][C][C][C][O],{[][<]*O[>][<]}{[>][<]C[>][<]}{[>][<]C[>][<]}{[>][<]C[>][<]}{[>][<]C[>][<]}{[>][<]N[>][<]}{[>][<]C[>][<]}{[>][<]C[>][<]}{[>][<]C[>][<]}{[>][<]C[>][<]}{[>][<]C[>][<]}{[>][<]C[>][<]}{[>][<]C[>][<]}{[>][<]C[>][<]}{[>][<]C[>][<]}{[>][<]C[>][<]}{[>][<]C[>][<]}{[>][<]C=O[>][<]}{[>][<]O[>][<]}{[>][<]O[>][<]}{[>][<]C=O[>][<]}{[>][<]*C=O[>][]}.CCCCO
279,peba,89.0,30.0,n-butanol,23.1,95.7,35,3.2,0.5704,0.033815,O=C(C(=O)OOC(=O)CCCCCCCCCCCN(CCCCO[*]))[*],CCCCO,"[2, 17, 0, 3, 1, 0, 0, 1, 0, 0, 3, 0, 0, 0, 0]",[C][Branch1_1][C][C][=O].[C][O][C][Branch1_1][C][C][=O].[C][O][C].[C][N][C][C][C][C][C][C][C][C][C][C][C][C][Branch1_1][C][C][=O].[C][C][C][C][C][O][C],[C][C][C][C][O],{[][<]*O[>][<]}{[>][<]C[>][<]}{[>][<]C[>][<]}{[>][<]C[>][<]}{[>][<]C[>][<]}{[>][<]N[>][<]}{[>][<]C[>][<]}{[>][<]C[>][<]}{[>][<]C[>][<]}{[>][<]C[>][<]}{[>][<]C[>][<]}{[>][<]C[>][<]}{[>][<]C[>][<]}{[>][<]C[>][<]}{[>][<]C[>][<]}{[>][<]C[>][<]}{[>][<]C[>][<]}{[>][<]C=O[>][<]}{[>][<]O[>][<]}{[>][<]O[>][<]}{[>][<]C=O[>][<]}{[>][<]*C=O[>][]},O=C(C(=O)OOC(=O)CCCCCCCCCCCN(CCCCO[*]))[*].CCCCO,[C][Branch1_1][C][C][=O].[C][O][C][Branch1_1][C][C][=O].[C][O][C].[C][N][C][C][C][C][C][C][C][C][C][C][C][C][Branch1_1][C][C][=O].[C][C][C][C][C][O][C].[C][C][C][C][O],{[][<]*O[>][<]}{[>][<]C[>][<]}{[>][<]C[>][<]}{[>][<]C[>][<]}{[>][<]C[>][<]}{[>][<]N[>][<]}{[>][<]C[>][<]}{[>][<]C[>][<]}{[>][<]C[>][<]}{[>][<]C[>][<]}{[>][<]C[>][<]}{[>][<]C[>][<]}{[>][<]C[>][<]}{[>][<]C[>][<]}{[>][<]C[>][<]}{[>][<]C[>][<]}{[>][<]C[>][<]}{[>][<]C=O[>][<]}{[>][<]O[>][<]}{[>][<]O[>][<]}{[>][<]C=O[>][<]}{[>][<]*C=O[>][]}.CCCCO
280,peba,89.0,30.0,n-butanol,23.1,97.5,35,3.2,0.2656,0.039522,O=C(C(=O)OOC(=O)CCCCCCCCCCCN(CCCCO[*]))[*],CCCCO,"[2, 17, 0, 3, 1, 0, 0, 1, 0, 0, 3, 0, 0, 0, 0]",[C][Branch1_1][C][C][=O].[C][O][C][Branch1_1][C][C][=O].[C][O][C].[C][N][C][C][C][C][C][C][C][C][C][C][C][C][Branch1_1][C][C][=O].[C][C][C][C][C][O][C],[C][C][C][C][O],{[][<]*O[>][<]}{[>][<]C[>][<]}{[>][<]C[>][<]}{[>][<]C[>][<]}{[>][<]C[>][<]}{[>][<]N[>][<]}{[>][<]C[>][<]}{[>][<]C[>][<]}{[>][<]C[>][<]}{[>][<]C[>][<]}{[>][<]C[>][<]}{[>][<]C[>][<]}{[>][<]C[>][<]}{[>][<]C[>][<]}{[>][<]C[>][<]}{[>][<]C[>][<]}{[>][<]C[>][<]}{[>][<]C=O[>][<]}{[>][<]O[>][<]}{[>][<]O[>][<]}{[>][<]C=O[>][<]}{[>][<]*C=O[>][]},O=C(C(=O)OOC(=O)CCCCCCCCCCCN(CCCCO[*]))[*].CCCCO,[C][Branch1_1][C][C][=O].[C][O][C][Branch1_1][C][C][=O].[C][O][C].[C][N][C][C][C][C][C][C][C][C][C][C][C][C][Branch1_1][C][C][=O].[C][C][C][C][C][O][C].[C][C][C][C][O],{[][<]*O[>][<]}{[>][<]C[>][<]}{[>][<]C[>][<]}{[>][<]C[>][<]}{[>][<]C[>][<]}{[>][<]N[>][<]}{[>][<]C[>][<]}{[>][<]C[>][<]}{[>][<]C[>][<]}{[>][<]C[>][<]}{[>][<]C[>][<]}{[>][<]C[>][<]}{[>][<]C[>][<]}{[>][<]C[>][<]}{[>][<]C[>][<]}{[>][<]C[>][<]}{[>][<]C[>][<]}{[>][<]C=O[>][<]}{[>][<]O[>][<]}{[>][<]O[>][<]}{[>][<]C=O[>][<]}{[>][<]*C=O[>][]}.CCCCO
281,peba,89.0,30.0,n-butanol,23.1,99.5,35,3.2,0.1576,0.057177,O=C(C(=O)OOC(=O)CCCCCCCCCCCN(CCCCO[*]))[*],CCCCO,"[2, 17, 0, 3, 1, 0, 0, 1, 0, 0, 3, 0, 0, 0, 0]",[C][Branch1_1][C][C][=O].[C][O][C][Branch1_1][C][C][=O].[C][O][C].[C][N][C][C][C][C][C][C][C][C][C][C][C][C][Branch1_1][C][C][=O].[C][C][C][C][C][O][C],[C][C][C][C][O],{[][<]*O[>][<]}{[>][<]C[>][<]}{[>][<]C[>][<]}{[>][<]C[>][<]}{[>][<]C[>][<]}{[>][<]N[>][<]}{[>][<]C[>][<]}{[>][<]C[>][<]}{[>][<]C[>][<]}{[>][<]C[>][<]}{[>][<]C[>][<]}{[>][<]C[>][<]}{[>][<]C[>][<]}{[>][<]C[>][<]}{[>][<]C[>][<]}{[>][<]C[>][<]}{[>][<]C[>][<]}{[>][<]C=O[>][<]}{[>][<]O[>][<]}{[>][<]O[>][<]}{[>][<]C=O[>][<]}{[>][<]*C=O[>][]},O=C(C(=O)OOC(=O)CCCCCCCCCCCN(CCCCO[*]))[*].CCCCO,[C][Branch1_1][C][C][=O].[C][O][C][Branch1_1][C][C][=O].[C][O][C].[C][N][C][C][C][C][C][C][C][C][C][C][C][C][Branch1_1][C][C][=O].[C][C][C][C][C][O][C].[C][C][C][C][O],{[][<]*O[>][<]}{[>][<]C[>][<]}{[>][<]C[>][<]}{[>][<]C[>][<]}{[>][<]C[>][<]}{[>][<]N[>][<]}{[>][<]C[>][<]}{[>][<]C[>][<]}{[>][<]C[>][<]}{[>][<]C[>][<]}{[>][<]C[>][<]}{[>][<]C[>][<]}{[>][<]C[>][<]}{[>][<]C[>][<]}{[>][<]C[>][<]}{[>][<]C[>][<]}{[>][<]C[>][<]}{[>][<]C=O[>][<]}{[>][<]O[>][<]}{[>][<]O[>][<]}{[>][<]C=O[>][<]}{[>][<]*C=O[>][]}.CCCCO
282,peba,89.0,5.0,n-butanol,23.1,99.0,40,3.0,1.620111732,0.042619,O=C(C(=O)OOC(=O)CCCCCCCCCCCN(CCCCO[*]))[*],CCCCO,"[2, 17, 0, 3, 1, 0, 0, 1, 0, 0, 3, 0, 0, 0, 0]",[C][Branch1_1][C][C][=O].[C][O][C][Branch1_1][C][C][=O].[C][O][C].[C][N][C][C][C][C][C][C][C][C][C][C][C][C][Branch1_1][C][C][=O].[C][C][C][C][C][O][C],[C][C][C][C][O],{[][<]*O[>][<]}{[>][<]C[>][<]}{[>][<]C[>][<]}{[>][<]C[>][<]}{[>][<]C[>][<]}{[>][<]N[>][<]}{[>][<]C[>][<]}{[>][<]C[>][<]}{[>][<]C[>][<]}{[>][<]C[>][<]}{[>][<]C[>][<]}{[>][<]C[>][<]}{[>][<]C[>][<]}{[>][<]C[>][<]}{[>][<]C[>][<]}{[>][<]C[>][<]}{[>][<]C[>][<]}{[>][<]C=O[>][<]}{[>][<]O[>][<]}{[>][<]O[>][<]}{[>][<]C=O[>][<]}{[>][<]*C=O[>][]},O=C(C(=O)OOC(=O)CCCCCCCCCCCN(CCCCO[*]))[*].CCCCO,[C][Branch1_1][C][C][=O].[C][O][C][Branch1_1][C][C][=O].[C][O][C].[C][N][C][C][C][C][C][C][C][C][C][C][C][C][Branch1_1][C][C][=O].[C][C][C][C][C][O][C].[C][C][C][C][O],{[][<]*O[>][<]}{[>][<]C[>][<]}{[>][<]C[>][<]}{[>][<]C[>][<]}{[>][<]C[>][<]}{[>][<]N[>][<]}{[>][<]C[>][<]}{[>][<]C[>][<]}{[>][<]C[>][<]}{[>][<]C[>][<]}{[>][<]C[>][<]}{[>][<]C[>][<]}{[>][<]C[>][<]}{[>][<]C[>][<]}{[>][<]C[>][<]}{[>][<]C[>][<]}{[>][<]C[>][<]}{[>][<]C=O[>][<]}{[>][<]O[>][<]}{[>][<]O[>][<]}{[>][<]C=O[>][<]}{[>][<]*C=O[>][]}.CCCCO
283,peba,89.0,3.5,n-butanol,23.1,98.0,40,3.0,2.5,0.046316,O=C(C(=O)OOC(=O)CCCCCCCCCCCN(CCCCO[*]))[*],CCCCO,"[2, 17, 0, 3, 1, 0, 0, 1, 0, 0, 3, 0, 0, 0, 0]",[C][Branch1_1][C][C][=O].[C][O][C][Branch1_1][C][C][=O].[C][O][C].[C][N][C][C][C][C][C][C][C][C][C][C][C][C][Branch1_1][C][C][=O].[C][C][C][C][C][O][C],[C][C][C][C][O],{[][<]*O[>][<]}{[>][<]C[>][<]}{[>][<]C[>][<]}{[>][<]C[>][<]}{[>][<]C[>][<]}{[>][<]N[>][<]}{[>][<]C[>][<]}{[>][<]C[>][<]}{[>][<]C[>][<]}{[>][<]C[>][<]}{[>][<]C[>][<]}{[>][<]C[>][<]}{[>][<]C[>][<]}{[>][<]C[>][<]}{[>][<]C[>][<]}{[>][<]C[>][<]}{[>][<]C[>][<]}{[>][<]C=O[>][<]}{[>][<]O[>][<]}{[>][<]O[>][<]}{[>][<]C=O[>][<]}{[>][<]*C=O[>][]},O=C(C(=O)OOC(=O)CCCCCCCCCCCN(CCCCO[*]))[*].CCCCO,[C][Branch1_1][C][C][=O].[C][O][C][Branch1_1][C][C][=O].[C][O][C].[C][N][C][C][C][C][C][C][C][C][C][C][C][C][Branch1_1][C][C][=O].[C][C][C][C][C][O][C].[C][C][C][C][O],{[][<]*O[>][<]}{[>][<]C[>][<]}{[>][<]C[>][<]}{[>][<]C[>][<]}{[>][<]C[>][<]}{[>][<]N[>][<]}{[>][<]C[>][<]}{[>][<]C[>][<]}{[>][<]C[>][<]}{[>][<]C[>][<]}{[>][<]C[>][<]}{[>][<]C[>][<]}{[>][<]C[>][<]}{[>][<]C[>][<]}{[>][<]C[>][<]}{[>][<]C[>][<]}{[>][<]C[>][<]}{[>][<]C=O[>][<]}{[>][<]O[>][<]}{[>][<]O[>][<]}{[>][<]C=O[>][<]}{[>][<]*C=O[>][]}.CCCCO
284,peba,89.0,3.5,n-butanol,23.1,99.0,40,3.0,2.0,0.046667,O=C(C(=O)OOC(=O)CCCCCCCCCCCN(CCCCO[*]))[*],CCCCO,"[2, 17, 0, 3, 1, 0, 0, 1, 0, 0, 3, 0, 0, 0, 0]",[C][Branch1_1][C][C][=O].[C][O][C][Branch1_1][C][C][=O].[C][O][C].[C][N][C][C][C][C][C][C][C][C][C][C][C][C][Branch1_1][C][C][=O].[C][C][C][C][C][O][C],[C][C][C][C][O],{[][<]*O[>][<]}{[>][<]C[>][<]}{[>][<]C[>][<]}{[>][<]C[>][<]}{[>][<]C[>][<]}{[>][<]N[>][<]}{[>][<]C[>][<]}{[>][<]C[>][<]}{[>][<]C[>][<]}{[>][<]C[>][<]}{[>][<]C[>][<]}{[>][<]C[>][<]}{[>][<]C[>][<]}{[>][<]C[>][<]}{[>][<]C[>][<]}{[>][<]C[>][<]}{[>][<]C[>][<]}{[>][<]C=O[>][<]}{[>][<]O[>][<]}{[>][<]O[>][<]}{[>][<]C=O[>][<]}{[>][<]*C=O[>][]},O=C(C(=O)OOC(=O)CCCCCCCCCCCN(CCCCO[*]))[*].CCCCO,[C][Branch1_1][C][C][=O].[C][O][C][Branch1_1][C][C][=O].[C][O][C].[C][N][C][C][C][C][C][C][C][C][C][C][C][C][Branch1_1][C][C][=O].[C][C][C][C][C][O][C].[C][C][C][C][O],{[][<]*O[>][<]}{[>][<]C[>][<]}{[>][<]C[>][<]}{[>][<]C[>][<]}{[>][<]C[>][<]}{[>][<]N[>][<]}{[>][<]C[>][<]}{[>][<]C[>][<]}{[>][<]C[>][<]}{[>][<]C[>][<]}{[>][<]C[>][<]}{[>][<]C[>][<]}{[>][<]C[>][<]}{[>][<]C[>][<]}{[>][<]C[>][<]}{[>][<]C[>][<]}{[>][<]C[>][<]}{[>][<]C=O[>][<]}{[>][<]O[>][<]}{[>][<]O[>][<]}{[>][<]C=O[>][<]}{[>][<]*C=O[>][]}.CCCCO
286,peba,89.0,3.5,n-butanol,23.1,99.0,60,3.0,4.2,0.048611,O=C(C(=O)OOC(=O)CCCCCCCCCCCN(CCCCO[*]))[*],CCCCO,"[2, 17, 0, 3, 1, 0, 0, 1, 0, 0, 3, 0, 0, 0, 0]",[C][Branch1_1][C][C][=O].[C][O][C][Branch1_1][C][C][=O].[C][O][C].[C][N][C][C][C][C][C][C][C][C][C][C][C][C][Branch1_1][C][C][=O].[C][C][C][C][C][O][C],[C][C][C][C][O],{[][<]*O[>][<]}{[>][<]C[>][<]}{[>][<]C[>][<]}{[>][<]C[>][<]}{[>][<]C[>][<]}{[>][<]N[>][<]}{[>][<]C[>][<]}{[>][<]C[>][<]}{[>][<]C[>][<]}{[>][<]C[>][<]}{[>][<]C[>][<]}{[>][<]C[>][<]}{[>][<]C[>][<]}{[>][<]C[>][<]}{[>][<]C[>][<]}{[>][<]C[>][<]}{[>][<]C[>][<]}{[>][<]C=O[>][<]}{[>][<]O[>][<]}{[>][<]O[>][<]}{[>][<]C=O[>][<]}{[>][<]*C=O[>][]},O=C(C(=O)OOC(=O)CCCCCCCCCCCN(CCCCO[*]))[*].CCCCO,[C][Branch1_1][C][C][=O].[C][O][C][Branch1_1][C][C][=O].[C][O][C].[C][N][C][C][C][C][C][C][C][C][C][C][C][C][Branch1_1][C][C][=O].[C][C][C][C][C][O][C].[C][C][C][C][O],{[][<]*O[>][<]}{[>][<]C[>][<]}{[>][<]C[>][<]}{[>][<]C[>][<]}{[>][<]C[>][<]}{[>][<]N[>][<]}{[>][<]C[>][<]}{[>][<]C[>][<]}{[>][<]C[>][<]}{[>][<]C[>][<]}{[>][<]C[>][<]}{[>][<]C[>][<]}{[>][<]C[>][<]}{[>][<]C[>][<]}{[>][<]C[>][<]}{[>][<]C[>][<]}{[>][<]C[>][<]}{[>][<]C=O[>][<]}{[>][<]O[>][<]}{[>][<]O[>][<]}{[>][<]C=O[>][<]}{[>][<]*C=O[>][]}.CCCCO
287,peba,89.0,3.5,n-butanol,23.1,97.0,40,3.0,3.181818182,0.049577,O=C(C(=O)OOC(=O)CCCCCCCCCCCN(CCCCO[*]))[*],CCCCO,"[2, 17, 0, 3, 1, 0, 0, 1, 0, 0, 3, 0, 0, 0, 0]",[C][Branch1_1][C][C][=O].[C][O][C][Branch1_1][C][C][=O].[C][O][C].[C][N][C][C][C][C][C][C][C][C][C][C][C][C][Branch1_1][C][C][=O].[C][C][C][C][C][O][C],[C][C][C][C][O],{[][<]*O[>][<]}{[>][<]C[>][<]}{[>][<]C[>][<]}{[>][<]C[>][<]}{[>][<]C[>][<]}{[>][<]N[>][<]}{[>][<]C[>][<]}{[>][<]C[>][<]}{[>][<]C[>][<]}{[>][<]C[>][<]}{[>][<]C[>][<]}{[>][<]C[>][<]}{[>][<]C[>][<]}{[>][<]C[>][<]}{[>][<]C[>][<]}{[>][<]C[>][<]}{[>][<]C[>][<]}{[>][<]C=O[>][<]}{[>][<]O[>][<]}{[>][<]O[>][<]}{[>][<]C=O[>][<]}{[>][<]*C=O[>][]},O=C(C(=O)OOC(=O)CCCCCCCCCCCN(CCCCO[*]))[*].CCCCO,[C][Branch1_1][C][C][=O].[C][O][C][Branch1_1][C][C][=O].[C][O][C].[C][N][C][C][C][C][C][C][C][C][C][C][C][C][Branch1_1][C][C][=O].[C][C][C][C][C][O][C].[C][C][C][C][O],{[][<]*O[>][<]}{[>][<]C[>][<]}{[>][<]C[>][<]}{[>][<]C[>][<]}{[>][<]C[>][<]}{[>][<]N[>][<]}{[>][<]C[>][<]}{[>][<]C[>][<]}{[>][<]C[>][<]}{[>][<]C[>][<]}{[>][<]C[>][<]}{[>][<]C[>][<]}{[>][<]C[>][<]}{[>][<]C[>][<]}{[>][<]C[>][<]}{[>][<]C[>][<]}{[>][<]C[>][<]}{[>][<]C=O[>][<]}{[>][<]O[>][<]}{[>][<]O[>][<]}{[>][<]C=O[>][<]}{[>][<]*C=O[>][]}.CCCCO
288,peba,89.0,3.5,n-butanol,23.1,96.0,40,3.0,4.113636364,0.051014,O=C(C(=O)OOC(=O)CCCCCCCCCCCN(CCCCO[*]))[*],CCCCO,"[2, 17, 0, 3, 1, 0, 0, 1, 0, 0, 3, 0, 0, 0, 0]",[C][Branch1_1][C][C][=O].[C][O][C][Branch1_1][C][C][=O].[C][O][C].[C][N][C][C][C][C][C][C][C][C][C][C][C][C][Branch1_1][C][C][=O].[C][C][C][C][C][O][C],[C][C][C][C][O],{[][<]*O[>][<]}{[>][<]C[>][<]}{[>][<]C[>][<]}{[>][<]C[>][<]}{[>][<]C[>][<]}{[>][<]N[>][<]}{[>][<]C[>][<]}{[>][<]C[>][<]}{[>][<]C[>][<]}{[>][<]C[>][<]}{[>][<]C[>][<]}{[>][<]C[>][<]}{[>][<]C[>][<]}{[>][<]C[>][<]}{[>][<]C[>][<]}{[>][<]C[>][<]}{[>][<]C[>][<]}{[>][<]C=O[>][<]}{[>][<]O[>][<]}{[>][<]O[>][<]}{[>][<]C=O[>][<]}{[>][<]*C=O[>][]},O=C(C(=O)OOC(=O)CCCCCCCCCCCN(CCCCO[*]))[*].CCCCO,[C][Branch1_1][C][C][=O].[C][O][C][Branch1_1][C][C][=O].[C][O][C].[C][N][C][C][C][C][C][C][C][C][C][C][C][C][Branch1_1][C][C][=O].[C][C][C][C][C][O][C].[C][C][C][C][O],{[][<]*O[>][<]}{[>][<]C[>][<]}{[>][<]C[>][<]}{[>][<]C[>][<]}{[>][<]C[>][<]}{[>][<]N[>][<]}{[>][<]C[>][<]}{[>][<]C[>][<]}{[>][<]C[>][<]}{[>][<]C[>][<]}{[>][<]C[>][<]}{[>][<]C[>][<]}{[>][<]C[>][<]}{[>][<]C[>][<]}{[>][<]C[>][<]}{[>][<]C[>][<]}{[>][<]C[>][<]}{[>][<]C=O[>][<]}{[>][<]O[>][<]}{[>][<]O[>][<]}{[>][<]C=O[>][<]}{[>][<]*C=O[>][]}.CCCCO
289,peba,89.0,3.5,n-butanol,23.1,99.0,30,3.0,1.028571429,0.054688,O=C(C(=O)OOC(=O)CCCCCCCCCCCN(CCCCO[*]))[*],CCCCO,"[2, 17, 0, 3, 1, 0, 0, 1, 0, 0, 3, 0, 0, 0, 0]",[C][Branch1_1][C][C][=O].[C][O][C][Branch1_1][C][C][=O].[C][O][C].[C][N][C][C][C][C][C][C][C][C][C][C][C][C][Branch1_1][C][C][=O].[C][C][C][C][C][O][C],[C][C][C][C][O],{[][<]*O[>][<]}{[>][<]C[>][<]}{[>][<]C[>][<]}{[>][<]C[>][<]}{[>][<]C[>][<]}{[>][<]N[>][<]}{[>][<]C[>][<]}{[>][<]C[>][<]}{[>][<]C[>][<]}{[>][<]C[>][<]}{[>][<]C[>][<]}{[>][<]C[>][<]}{[>][<]C[>][<]}{[>][<]C[>][<]}{[>][<]C[>][<]}{[>][<]C[>][<]}{[>][<]C[>][<]}{[>][<]C=O[>][<]}{[>][<]O[>][<]}{[>][<]O[>][<]}{[>][<]C=O[>][<]}{[>][<]*C=O[>][]},O=C(C(=O)OOC(=O)CCCCCCCCCCCN(CCCCO[*]))[*].CCCCO,[C][Branch1_1][C][C][=O].[C][O][C][Branch1_1][C][C][=O].[C][O][C].[C][N][C][C][C][C][C][C][C][C][C][C][C][C][Branch1_1][C][C][=O].[C][C][C][C][C][O][C].[C][C][C][C][O],{[][<]*O[>][<]}{[>][<]C[>][<]}{[>][<]C[>][<]}{[>][<]C[>][<]}{[>][<]C[>][<]}{[>][<]N[>][<]}{[>][<]C[>][<]}{[>][<]C[>][<]}{[>][<]C[>][<]}{[>][<]C[>][<]}{[>][<]C[>][<]}{[>][<]C[>][<]}{[>][<]C[>][<]}{[>][<]C[>][<]}{[>][<]C[>][<]}{[>][<]C[>][<]}{[>][<]C[>][<]}{[>][<]C=O[>][<]}{[>][<]O[>][<]}{[>][<]O[>][<]}{[>][<]C=O[>][<]}{[>][<]*C=O[>][]}.CCCCO
290,peba,89.0,2.5,n-butanol,23.1,99.0,40,3.0,2.877094972,0.056825,O=C(C(=O)OOC(=O)CCCCCCCCCCCN(CCCCO[*]))[*],CCCCO,"[2, 17, 0, 3, 1, 0, 0, 1, 0, 0, 3, 0, 0, 0, 0]",[C][Branch1_1][C][C][=O].[C][O][C][Branch1_1][C][C][=O].[C][O][C].[C][N][C][C][C][C][C][C][C][C][C][C][C][C][Branch1_1][C][C][=O].[C][C][C][C][C][O][C],[C][C][C][C][O],{[][<]*O[>][<]}{[>][<]C[>][<]}{[>][<]C[>][<]}{[>][<]C[>][<]}{[>][<]C[>][<]}{[>][<]N[>][<]}{[>][<]C[>][<]}{[>][<]C[>][<]}{[>][<]C[>][<]}{[>][<]C[>][<]}{[>][<]C[>][<]}{[>][<]C[>][<]}{[>][<]C[>][<]}{[>][<]C[>][<]}{[>][<]C[>][<]}{[>][<]C[>][<]}{[>][<]C[>][<]}{[>][<]C=O[>][<]}{[>][<]O[>][<]}{[>][<]O[>][<]}{[>][<]C=O[>][<]}{[>][<]*C=O[>][]},O=C(C(=O)OOC(=O)CCCCCCCCCCCN(CCCCO[*]))[*].CCCCO,[C][Branch1_1][C][C][=O].[C][O][C][Branch1_1][C][C][=O].[C][O][C].[C][N][C][C][C][C][C][C][C][C][C][C][C][C][Branch1_1][C][C][=O].[C][C][C][C][C][O][C].[C][C][C][C][O],{[][<]*O[>][<]}{[>][<]C[>][<]}{[>][<]C[>][<]}{[>][<]C[>][<]}{[>][<]C[>][<]}{[>][<]N[>][<]}{[>][<]C[>][<]}{[>][<]C[>][<]}{[>][<]C[>][<]}{[>][<]C[>][<]}{[>][<]C[>][<]}{[>][<]C[>][<]}{[>][<]C[>][<]}{[>][<]C[>][<]}{[>][<]C[>][<]}{[>][<]C[>][<]}{[>][<]C[>][<]}{[>][<]C=O[>][<]}{[>][<]O[>][<]}{[>][<]O[>][<]}{[>][<]C=O[>][<]}{[>][<]*C=O[>][]}.CCCCO
291,peba,89.0,3.5,n-butanol,23.1,99.0,25,3.0,0.885714286,0.066038,O=C(C(=O)OOC(=O)CCCCCCCCCCCN(CCCCO[*]))[*],CCCCO,"[2, 17, 0, 3, 1, 0, 0, 1, 0, 0, 3, 0, 0, 0, 0]",[C][Branch1_1][C][C][=O].[C][O][C][Branch1_1][C][C][=O].[C][O][C].[C][N][C][C][C][C][C][C][C][C][C][C][C][C][Branch1_1][C][C][=O].[C][C][C][C][C][O][C],[C][C][C][C][O],{[][<]*O[>][<]}{[>][<]C[>][<]}{[>][<]C[>][<]}{[>][<]C[>][<]}{[>][<]C[>][<]}{[>][<]N[>][<]}{[>][<]C[>][<]}{[>][<]C[>][<]}{[>][<]C[>][<]}{[>][<]C[>][<]}{[>][<]C[>][<]}{[>][<]C[>][<]}{[>][<]C[>][<]}{[>][<]C[>][<]}{[>][<]C[>][<]}{[>][<]C[>][<]}{[>][<]C[>][<]}{[>][<]C=O[>][<]}{[>][<]O[>][<]}{[>][<]O[>][<]}{[>][<]C=O[>][<]}{[>][<]*C=O[>][]},O=C(C(=O)OOC(=O)CCCCCCCCCCCN(CCCCO[*]))[*].CCCCO,[C][Branch1_1][C][C][=O].[C][O][C][Branch1_1][C][C][=O].[C][O][C].[C][N][C][C][C][C][C][C][C][C][C][C][C][C][Branch1_1][C][C][=O].[C][C][C][C][C][O][C].[C][C][C][C][O],{[][<]*O[>][<]}{[>][<]C[>][<]}{[>][<]C[>][<]}{[>][<]C[>][<]}{[>][<]C[>][<]}{[>][<]N[>][<]}{[>][<]C[>][<]}{[>][<]C[>][<]}{[>][<]C[>][<]}{[>][<]C[>][<]}{[>][<]C[>][<]}{[>][<]C[>][<]}{[>][<]C[>][<]}{[>][<]C[>][<]}{[>][<]C[>][<]}{[>][<]C[>][<]}{[>][<]C[>][<]}{[>][<]C=O[>][<]}{[>][<]O[>][<]}{[>][<]O[>][<]}{[>][<]C=O[>][<]}{[>][<]*C=O[>][]}.CCCCO
292,peba,89.0,2.0,n-butanol,23.1,99.0,40,3.0,4.413407821,0.074583,O=C(C(=O)OOC(=O)CCCCCCCCCCCN(CCCCO[*]))[*],CCCCO,"[2, 17, 0, 3, 1, 0, 0, 1, 0, 0, 3, 0, 0, 0, 0]",[C][Branch1_1][C][C][=O].[C][O][C][Branch1_1][C][C][=O].[C][O][C].[C][N][C][C][C][C][C][C][C][C][C][C][C][C][Branch1_1][C][C][=O].[C][C][C][C][C][O][C],[C][C][C][C][O],{[][<]*O[>][<]}{[>][<]C[>][<]}{[>][<]C[>][<]}{[>][<]C[>][<]}{[>][<]C[>][<]}{[>][<]N[>][<]}{[>][<]C[>][<]}{[>][<]C[>][<]}{[>][<]C[>][<]}{[>][<]C[>][<]}{[>][<]C[>][<]}{[>][<]C[>][<]}{[>][<]C[>][<]}{[>][<]C[>][<]}{[>][<]C[>][<]}{[>][<]C[>][<]}{[>][<]C[>][<]}{[>][<]C=O[>][<]}{[>][<]O[>][<]}{[>][<]O[>][<]}{[>][<]C=O[>][<]}{[>][<]*C=O[>][]},O=C(C(=O)OOC(=O)CCCCCCCCCCCN(CCCCO[*]))[*].CCCCO,[C][Branch1_1][C][C][=O].[C][O][C][Branch1_1][C][C][=O].[C][O][C].[C][N][C][C][C][C][C][C][C][C][C][C][C][C][Branch1_1][C][C][=O].[C][C][C][C][C][O][C].[C][C][C][C][O],{[][<]*O[>][<]}{[>][<]C[>][<]}{[>][<]C[>][<]}{[>][<]C[>][<]}{[>][<]C[>][<]}{[>][<]N[>][<]}{[>][<]C[>][<]}{[>][<]C[>][<]}{[>][<]C[>][<]}{[>][<]C[>][<]}{[>][<]C[>][<]}{[>][<]C[>][<]}{[>][<]C[>][<]}{[>][<]C[>][<]}{[>][<]C[>][<]}{[>][<]C[>][<]}{[>][<]C[>][<]}{[>][<]C=O[>][<]}{[>][<]O[>][<]}{[>][<]O[>][<]}{[>][<]C=O[>][<]}{[>][<]*C=O[>][]}.CCCCO
293,peba,89.0,7.0,n-butanol,23.1,96.3,34,1.3,1.043,0.107526882,O=C(C(=O)OOC(=O)CCCCCCCCCCCN(CCCCO[*]))[*],CCCCO,"[2, 17, 0, 3, 1, 0, 0, 1, 0, 0, 3, 0, 0, 0, 0]",[C][Branch1_1][C][C][=O].[C][O][C][Branch1_1][C][C][=O].[C][O][C].[C][N][C][C][C][C][C][C][C][C][C][C][C][C][Branch1_1][C][C][=O].[C][C][C][C][C][O][C],[C][C][C][C][O],{[][<]*O[>][<]}{[>][<]C[>][<]}{[>][<]C[>][<]}{[>][<]C[>][<]}{[>][<]C[>][<]}{[>][<]N[>][<]}{[>][<]C[>][<]}{[>][<]C[>][<]}{[>][<]C[>][<]}{[>][<]C[>][<]}{[>][<]C[>][<]}{[>][<]C[>][<]}{[>][<]C[>][<]}{[>][<]C[>][<]}{[>][<]C[>][<]}{[>][<]C[>][<]}{[>][<]C[>][<]}{[>][<]C=O[>][<]}{[>][<]O[>][<]}{[>][<]O[>][<]}{[>][<]C=O[>][<]}{[>][<]*C=O[>][]},O=C(C(=O)OOC(=O)CCCCCCCCCCCN(CCCCO[*]))[*].CCCCO,[C][Branch1_1][C][C][=O].[C][O][C][Branch1_1][C][C][=O].[C][O][C].[C][N][C][C][C][C][C][C][C][C][C][C][C][C][Branch1_1][C][C][=O].[C][C][C][C][C][O][C].[C][C][C][C][O],{[][<]*O[>][<]}{[>][<]C[>][<]}{[>][<]C[>][<]}{[>][<]C[>][<]}{[>][<]C[>][<]}{[>][<]N[>][<]}{[>][<]C[>][<]}{[>][<]C[>][<]}{[>][<]C[>][<]}{[>][<]C[>][<]}{[>][<]C[>][<]}{[>][<]C[>][<]}{[>][<]C[>][<]}{[>][<]C[>][<]}{[>][<]C[>][<]}{[>][<]C[>][<]}{[>][<]C[>][<]}{[>][<]C=O[>][<]}{[>][<]O[>][<]}{[>][<]O[>][<]}{[>][<]C=O[>][<]}{[>][<]*C=O[>][]}.CCCCO
294,pdms,108.08219,20.0,n-butanol,23.1,99.0,40,2.1,0.775895765,0.024612,*O[Si](*)(C)C,CCCCO,"[3, 3, 0, 0, 1, 0, 0, 0, 0, 0, 1, 0, 0, 1, 0]",[Siexpl][Branch1_1][C][C][Branch1_1][C][C][Branch1_1][C][C][O][Branch1_1][C][C],[C][C][C][C][O],{[][<]*O[>][<]}{[>][<]*[Si](C)C[>][]},*O[Si](*)(C)C.CCCCO,[Siexpl][Branch1_1][C][C][Branch1_1][C][C][Branch1_1][C][C][O][Branch1_1][C][C].[C][C][C][C][O],{[][<]*O[>][<]}{[>][<]*[Si](C)C[>][]}.CCCCO
295,pdms,108.08219,10.0,n-butanol,23.1,99.0,40,2.1,0.778,0.02457,*O[Si](*)(C)C,CCCCO,"[3, 3, 0, 0, 1, 0, 0, 0, 0, 0, 1, 0, 0, 1, 0]",[Siexpl][Branch1_1][C][C][Branch1_1][C][C][Branch1_1][C][C][O][Branch1_1][C][C],[C][C][C][C][O],{[][<]*O[>][<]}{[>][<]*[Si](C)C[>][]},*O[Si](*)(C)C.CCCCO,[Siexpl][Branch1_1][C][C][Branch1_1][C][C][Branch1_1][C][C][O][Branch1_1][C][C].[C][C][C][C][O],{[][<]*O[>][<]}{[>][<]*[Si](C)C[>][]}.CCCCO
296,pdms,108.08219,10.0,n-butanol,23.1,99.0,40,2.1,0.805211726,0.024738,*O[Si](*)(C)C,CCCCO,"[3, 3, 0, 0, 1, 0, 0, 0, 0, 0, 1, 0, 0, 1, 0]",[Siexpl][Branch1_1][C][C][Branch1_1][C][C][Branch1_1][C][C][O][Branch1_1][C][C],[C][C][C][C][O],{[][<]*O[>][<]}{[>][<]*[Si](C)C[>][]},*O[Si](*)(C)C.CCCCO,[Siexpl][Branch1_1][C][C][Branch1_1][C][C][Branch1_1][C][C][O][Branch1_1][C][C].[C][C][C][C][O],{[][<]*O[>][<]}{[>][<]*[Si](C)C[>][]}.CCCCO