Polymer,Polymer_SMILES,Solvent,Solvent_SMILES,Contact_angle,Thickness,Solvent_solubility_parameter,xw_wt_percent,Temperature,Permeate_pressure,J_total_flux,a_separation_factor,Polymer_BRICS,Solvent_BRICS,PS_pair_BRICS,Thickness_um,Solvent_solubility_parameter_Mpa_sqrt,Temp_C,Permeate_pressure_mbar,J_Total_flux_kg_m_2h_1,a_Separation_factor_wo
chitosan,NC2C(O)C(OC1OC(CO)C(O(C))C(O)C1N)C(CO)OC2(C),ipa,CC(C)O,55.1,,,5.0,,,,,"['CO', 'O', 'CO', 'CC1OCCC(O)C1N', 'NC1COCCC1O', '.', 'CC(C)O']",['CC(C)O'],"['CO', 'O', 'CO', 'CC1OCCC(O)C1N', 'NC1COCCC1O', '.', 'CC(C)O']",40.0,23.5,30,13.3,0.0378,606.617647
chitosan,NC2C(O)C(OC1OC(CO)C(O(C))C(O)C1N)C(CO)OC2(C),ipa,CC(C)O,55.1,,,15.0,,,,,"['CO', 'O', 'CO', 'CC1OCCC(O)C1N', 'NC1COCCC1O', '.', 'CC(C)O']",['CC(C)O'],"['CO', 'O', 'CO', 'CC1OCCC(O)C1N', 'NC1COCCC1O', '.', 'CC(C)O']",40.0,23.5,30,13.3,0.0894,122.54902
chitosan,NC2C(O)C(OC1OC(CO)C(O(C))C(O)C1N)C(CO)OC2(C),ipa,CC(C)O,55.1,,,20.0,,,,,"['CO', 'O', 'CO', 'CC1OCCC(O)C1N', 'NC1COCCC1O', '.', 'CC(C)O']",['CC(C)O'],"['CO', 'O', 'CO', 'CC1OCCC(O)C1N', 'NC1COCCC1O', '.', 'CC(C)O']",40.0,23.5,30,13.3,0.17,73.529412
pdms,[Si](C)(C)(C)O(C),n-butanol,CCCCO,104.0,,,99.0,,,,,"['CO[Si](C)(C)C', '.', 'CCCCO']",['CCCCO'],"['CO[Si](C)(C)C', '.', 'CCCCO']",12.0,23.1,40,3.0,0.4364,0.028205
pdms,[Si](C)(C)(C)O(C),n-butanol,CCCCO,104.0,,,95.0,,,,,"['CO[Si](C)(C)C', '.', 'CCCCO']",['CCCCO'],"['CO[Si](C)(C)C', '.', 'CCCCO']",12.0,23.1,40,3.0,0.9849,0.028701
pdms,[Si](C)(C)(C)O(C),n-butanol,CCCCO,104.0,,,99.0,,,,,"['CO[Si](C)(C)C', '.', 'CCCCO']",['CCCCO'],"['CO[Si](C)(C)C', '.', 'CCCCO']",12.0,23.1,80,3.0,1.1455,0.028871
peba,C(C)=O.COC(C)=O.COC.CNCCCCCCCCCCCC(C)=O.CCCCCOC,ipa,CC(C)O,89.0,,,70.0,,,,,"['CO', 'CC=O', '.', 'CC(C)O']",['CC(C)O'],"['CO', 'CC=O', '.', 'CC(C)O']",100.0,23.5,30,6.7,0.769,0.371428529
peba,C(C)=O.COC(C)=O.COC.CNCCCCCCCCCCCC(C)=O.CCCCCOC,ipa,CC(C)O,89.0,,,80.0,,,,,"['CO', 'CC=O', '.', 'CC(C)O']",['CC(C)O'],"['CO', 'CC=O', '.', 'CC(C)O']",100.0,23.5,30,6.7,0.5411,0.305882331
peba,C(C)=O.COC(C)=O.COC.CNCCCCCCCCCCCC(C)=O.CCCCCOC,ipa,CC(C)O,89.0,,,90.0,,,,,"['CO', 'CC=O', '.', 'CC(C)O']",['CC(C)O'],"['CO', 'CC=O', '.', 'CC(C)O']",100.0,23.5,30,6.7,0.2848,0.283636366
peba,C(C)=O.COC(C)=O.COC.CNCCCCCCCCCCCC(C)=O.CCCCCOC,ipa,CC(C)O,89.0,,,90.0,,,,,"['CO', 'CC=O', '.', 'CC(C)O']",['CC(C)O'],"['CO', 'CC=O', '.', 'CC(C)O']",100.0,23.5,50,6.7,1.1139,0.218292663
peba,C(C)=O.COC(C)=O.COC.CNCCCCCCCCCCCC(C)=O.CCCCCOC,ipa,CC(C)O,89.0,,,90.0,,,,,"['CO', 'CC=O', '.', 'CC(C)O']",['CC(C)O'],"['CO', 'CC=O', '.', 'CC(C)O']",100.0,23.5,60,6.7,1.7387,0.192473108
pbo,FC(F)(F)C(c1ccc(C)cc1)(c6ccc(c5nc4ccc(c3ccc2nc(C)oc2c3)cc4o5)cc6)C(F)(F)F,n-butanol,CCCCO,82.0,,,15.0,,,,,"['Cc1ccccc1', 'FC(F)(F)CC(F)(F)F', 'c1ccccc1', 'c1ccc2ocnc2c1', 'Cc1nc2ccccc2o1', '.', 'CCCCO']",['CCCCO'],"['Cc1ccccc1', 'FC(F)(F)CC(F)(F)F', 'c1ccccc1', 'c1ccc2ocnc2c1', 'Cc1nc2ccccc2o1', '.', 'CCCCO']",24.24,23.1,25,1.0,0.0201,1569.666667
pbo,FC(F)(F)C(c1ccc(C)cc1)(c6ccc(c5nc4ccc(c3ccc2nc(C)oc2c3)cc4o5)cc6)C(F)(F)F,ipa,CC(C)O,82.0,,,15.0,,,,,"['Cc1ccccc1', 'FC(F)(F)CC(F)(F)F', 'c1ccccc1', 'c1ccc2ocnc2c1', 'Cc1nc2ccccc2o1', '.', 'CC(C)O']",['CC(C)O'],"['Cc1ccccc1', 'FC(F)(F)CC(F)(F)F', 'c1ccccc1', 'c1ccc2ocnc2c1', 'Cc1nc2ccccc2o1', '.', 'CC(C)O']",24.24,23.5,25,1.0,0.0245,1569.666667
pbo,FC(F)(F)C(c1ccc(C)cc1)(c6ccc(c5nc4ccc(c3ccc2nc(C)oc2c3)cc4o5)cc6)C(F)(F)F,n-butanol,CCCCO,82.0,,,15.0,,,,,"['Cc1ccccc1', 'FC(F)(F)CC(F)(F)F', 'c1ccccc1', 'c1ccc2ocnc2c1', 'Cc1nc2ccccc2o1', '.', 'CCCCO']",['CCCCO'],"['Cc1ccccc1', 'FC(F)(F)CC(F)(F)F', 'c1ccccc1', 'c1ccc2ocnc2c1', 'Cc1nc2ccccc2o1', '.', 'CCCCO']",24.24,23.1,25,1.0,0.0331,1044.555556
pbo,FC(F)(F)C(c1ccc(C)cc1)(c6ccc(c5nc4ccc(c3ccc2nc(C)oc2c3)cc4o5)cc6)C(F)(F)F,n-butanol,CCCCO,82.0,,,15.0,,,,,"['Cc1ccccc1', 'FC(F)(F)CC(F)(F)F', 'c1ccccc1', 'c1ccc2ocnc2c1', 'Cc1nc2ccccc2o1', '.', 'CCCCO']",['CCCCO'],"['Cc1ccccc1', 'FC(F)(F)CC(F)(F)F', 'c1ccccc1', 'c1ccc2ocnc2c1', 'Cc1nc2ccccc2o1', '.', 'CCCCO']",24.24,23.1,25,1.0,0.0345,1569.666667
pbo,FC(F)(F)C(c1ccc(C)cc1)(c6ccc(c5nc4ccc(c3ccc2nc(C)oc2c3)cc4o5)cc6)C(F)(F)F,ipa,CC(C)O,82.0,,,15.0,,,,,"['Cc1ccccc1', 'FC(F)(F)CC(F)(F)F', 'c1ccccc1', 'c1ccc2ocnc2c1', 'Cc1nc2ccccc2o1', '.', 'CC(C)O']",['CC(C)O'],"['Cc1ccccc1', 'FC(F)(F)CC(F)(F)F', 'c1ccccc1', 'c1ccc2ocnc2c1', 'Cc1nc2ccccc2o1', '.', 'CC(C)O']",24.24,23.5,25,1.0,0.0374,1044.555556
pbo,FC(F)(F)C(c1ccc(C)cc1)(c6ccc(c5nc4ccc(c3ccc2nc(C)oc2c3)cc4o5)cc6)C(F)(F)F,ethanol,CCO,82.0,,,10.0,,,,,"['Cc1ccccc1', 'FC(F)(F)CC(F)(F)F', 'c1ccccc1', 'c1ccc2ocnc2c1', 'Cc1nc2ccccc2o1', '.', 'CCO']",['CCO'],"['Cc1ccccc1', 'FC(F)(F)CC(F)(F)F', 'c1ccccc1', 'c1ccc2ocnc2c1', 'Cc1nc2ccccc2o1', '.', 'CCO']",24.24,26.5,25,1.0,0.046,56.842105
pbo,FC(F)(F)C(c1ccc(C)cc1)(c6ccc(c5nc4ccc(c3ccc2nc(C)oc2c3)cc4o5)cc6)C(F)(F)F,ipa,CC(C)O,82.0,,,15.0,,,,,"['Cc1ccccc1', 'FC(F)(F)CC(F)(F)F', 'c1ccccc1', 'c1ccc2ocnc2c1', 'Cc1nc2ccccc2o1', '.', 'CC(C)O']",['CC(C)O'],"['Cc1ccccc1', 'FC(F)(F)CC(F)(F)F', 'c1ccccc1', 'c1ccc2ocnc2c1', 'Cc1nc2ccccc2o1', '.', 'CC(C)O']",24.24,23.5,25,1.0,0.0576,1569.666667
pbo,FC(F)(F)C(c1ccc(C)cc1)(c6ccc(c5nc4ccc(c3ccc2nc(C)oc2c3)cc4o5)cc6)C(F)(F)F,n-butanol,CCCCO,82.0,,,10.0,,,,,"['Cc1ccccc1', 'FC(F)(F)CC(F)(F)F', 'c1ccccc1', 'c1ccc2ocnc2c1', 'Cc1nc2ccccc2o1', '.', 'CCCCO']",['CCCCO'],"['Cc1ccccc1', 'FC(F)(F)CC(F)(F)F', 'c1ccccc1', 'c1ccc2ocnc2c1', 'Cc1nc2ccccc2o1', '.', 'CCCCO']",24.24,23.1,80,1.0,0.0577,459.0
pbo,FC(F)(F)C(c1ccc(C)cc1)(c6ccc(c5nc4ccc(c3ccc2nc(C)oc2c3)cc4o5)cc6)C(F)(F)F,n-butanol,CCCCO,82.0,,,10.0,,,,,"['Cc1ccccc1', 'FC(F)(F)CC(F)(F)F', 'c1ccccc1', 'c1ccc2ocnc2c1', 'Cc1nc2ccccc2o1', '.', 'CCCCO']",['CCCCO'],"['Cc1ccccc1', 'FC(F)(F)CC(F)(F)F', 'c1ccccc1', 'c1ccc2ocnc2c1', 'Cc1nc2ccccc2o1', '.', 'CCCCO']",24.24,23.1,60,1.0,0.0596,891.0
pbo,FC(F)(F)C(c1ccc(C)cc1)(c6ccc(c5nc4ccc(c3ccc2nc(C)oc2c3)cc4o5)cc6)C(F)(F)F,ethanol,CCO,82.0,,,15.0,,,,,"['Cc1ccccc1', 'FC(F)(F)CC(F)(F)F', 'c1ccccc1', 'c1ccc2ocnc2c1', 'Cc1nc2ccccc2o1', '.', 'CCO']",['CCO'],"['Cc1ccccc1', 'FC(F)(F)CC(F)(F)F', 'c1ccccc1', 'c1ccc2ocnc2c1', 'Cc1nc2ccccc2o1', '.', 'CCO']",24.24,26.5,25,1.0,0.0836,80.59259259
pbo,FC(F)(F)C(c1ccc(C)cc1)(c6ccc(c5nc4ccc(c3ccc2nc(C)oc2c3)cc4o5)cc6)C(F)(F)F,ipa,CC(C)O,82.0,,,10.0,,,,,"['Cc1ccccc1', 'FC(F)(F)CC(F)(F)F', 'c1ccccc1', 'c1ccc2ocnc2c1', 'Cc1nc2ccccc2o1', '.', 'CC(C)O']",['CC(C)O'],"['Cc1ccccc1', 'FC(F)(F)CC(F)(F)F', 'c1ccccc1', 'c1ccc2ocnc2c1', 'Cc1nc2ccccc2o1', '.', 'CC(C)O']",24.24,23.5,60,1.0,0.0846,927.0
pbo,FC(F)(F)C(c1ccc(C)cc1)(c6ccc(c5nc4ccc(c3ccc2nc(C)oc2c3)cc4o5)cc6)C(F)(F)F,ipa,CC(C)O,82.0,,,10.0,,,,,"['Cc1ccccc1', 'FC(F)(F)CC(F)(F)F', 'c1ccccc1', 'c1ccc2ocnc2c1', 'Cc1nc2ccccc2o1', '.', 'CC(C)O']",['CC(C)O'],"['Cc1ccccc1', 'FC(F)(F)CC(F)(F)F', 'c1ccccc1', 'c1ccc2ocnc2c1', 'Cc1nc2ccccc2o1', '.', 'CC(C)O']",24.24,23.5,80,1.0,0.1346,199.0
pbo,FC(F)(F)C(c1ccc(C)cc1)(c6ccc(c5nc4ccc(c3ccc2nc(C)oc2c3)cc4o5)cc6)C(F)(F)F,ethanol,CCO,84.0,,,15.0,,,,,"['Cc1ccccc1', 'FC(F)(F)CC(F)(F)F', 'c1ccccc1', 'c1ccc2ocnc2c1', 'Cc1nc2ccccc2o1', '.', 'CCO']",['CCO'],"['Cc1ccccc1', 'FC(F)(F)CC(F)(F)F', 'c1ccccc1', 'c1ccc2ocnc2c1', 'Cc1nc2ccccc2o1', '.', 'CCO']",24.11,26.5,25,1.0,0.0801,68.26984127
pbo,FC(F)(F)C(c1ccc(C)cc1)(c6ccc(c5nc4ccc(c3ccc2nc(C)oc2c3)cc4o5)cc6)C(F)(F)F,ethanol,CCO,90.0,,,15.0,,,,,"['Cc1ccccc1', 'FC(F)(F)CC(F)(F)F', 'c1ccccc1', 'c1ccc2ocnc2c1', 'Cc1nc2ccccc2o1', '.', 'CCO']",['CCO'],"['Cc1ccccc1', 'FC(F)(F)CC(F)(F)F', 'c1ccccc1', 'c1ccc2ocnc2c1', 'Cc1nc2ccccc2o1', '.', 'CCO']",23.35,26.5,25,1.0,0.0622,80.59259259
pbo,FC(F)(F)C(c1ccc(C)cc1)(c6ccc(c5nc4ccc(c3ccc2nc(C)oc2c3)cc4o5)cc6)C(F)(F)F,ethanol,CCO,91.0,,,15.0,,,,,"['Cc1ccccc1', 'FC(F)(F)CC(F)(F)F', 'c1ccccc1', 'c1ccc2ocnc2c1', 'Cc1nc2ccccc2o1', '.', 'CCO']",['CCO'],"['Cc1ccccc1', 'FC(F)(F)CC(F)(F)F', 'c1ccccc1', 'c1ccc2ocnc2c1', 'Cc1nc2ccccc2o1', '.', 'CCO']",18.23,26.5,25,1.0,0.0486,216.1428571
p84,Cc2ccc(Cc1ccc(C)cc1)cc2.Cc1cc(C)ccc1n5c(=O)c4ccc(C(=O)c3ccc2c(=O)n(C)c(=O)c2c3)cc4c5=O,ipa,CC(C)O,82.3,,,15.0,,,,,"['CN1C(=O)c2ccccc2C1=O', 'C=O', 'Cc1cccc(C)c1', 'O=C1NC(=O)c2ccccc21', '.', 'CC(C)O']",['CC(C)O'],"['CN1C(=O)c2ccccc2C1=O', 'C=O', 'Cc1cccc(C)c1', 'O=C1NC(=O)c2ccccc21', '.', 'CC(C)O']",39.0,23.5,80,5.0,0.0256,945.402299
p84,Cc2ccc(Cc1ccc(C)cc1)cc2.Cc1cc(C)ccc1n5c(=O)c4ccc(C(=O)c3ccc2c(=O)n(C)c(=O)c2c3)cc4c5=O,ipa,CC(C)O,82.3,,,15.0,,,,,"['CN1C(=O)c2ccccc2C1=O', 'C=O', 'Cc1cccc(C)c1', 'O=C1NC(=O)c2ccccc21', '.', 'CC(C)O']",['CC(C)O'],"['CN1C(=O)c2ccccc2C1=O', 'C=O', 'Cc1cccc(C)c1', 'O=C1NC(=O)c2ccccc21', '.', 'CC(C)O']",39.0,23.5,100,5.0,0.0545,1025.862069
p84,Cc2ccc(Cc1ccc(C)cc1)cc2.Cc1cc(C)ccc1n5c(=O)c4ccc(C(=O)c3ccc2c(=O)n(C)c(=O)c2c3)cc4c5=O,ipa,CC(C)O,82.3,,,15.0,,,,,"['CN1C(=O)c2ccccc2C1=O', 'C=O', 'Cc1cccc(C)c1', 'O=C1NC(=O)c2ccccc21', '.', 'CC(C)O']",['CC(C)O'],"['CN1C(=O)c2ccccc2C1=O', 'C=O', 'Cc1cccc(C)c1', 'O=C1NC(=O)c2ccccc21', '.', 'CC(C)O']",28.0,23.5,80,5.0,0.0392,1025.862069
p84,Cc2ccc(Cc1ccc(C)cc1)cc2.Cc1cc(C)ccc1n5c(=O)c4ccc(C(=O)c3ccc2c(=O)n(C)c(=O)c2c3)cc4c5=O,ipa,CC(C)O,82.3,,,15.0,,,,,"['CN1C(=O)c2ccccc2C1=O', 'C=O', 'Cc1cccc(C)c1', 'O=C1NC(=O)c2ccccc21', '.', 'CC(C)O']",['CC(C)O'],"['CN1C(=O)c2ccccc2C1=O', 'C=O', 'Cc1cccc(C)c1', 'O=C1NC(=O)c2ccccc21', '.', 'CC(C)O']",28.0,23.5,100,5.0,0.0699,864.942529
p84,Cc2ccc(Cc1ccc(C)cc1)cc2.Cc1cc(C)ccc1n5c(=O)c4ccc(C(=O)c3ccc2c(=O)n(C)c(=O)c2c3)cc4c5=O,ipa,CC(C)O,82.3,,,15.0,,,,,"['CN1C(=O)c2ccccc2C1=O', 'C=O', 'Cc1cccc(C)c1', 'O=C1NC(=O)c2ccccc21', '.', 'CC(C)O']",['CC(C)O'],"['CN1C(=O)c2ccccc2C1=O', 'C=O', 'Cc1cccc(C)c1', 'O=C1NC(=O)c2ccccc21', '.', 'CC(C)O']",10.0,23.5,60,5.0,0.0631,2916.666667
p84,Cc2ccc(Cc1ccc(C)cc1)cc2.Cc1cc(C)ccc1n5c(=O)c4ccc(C(=O)c3ccc2c(=O)n(C)c(=O)c2c3)cc4c5=O,ipa,CC(C)O,82.3,,,15.0,,,,,"['CN1C(=O)c2ccccc2C1=O', 'C=O', 'Cc1cccc(C)c1', 'O=C1NC(=O)c2ccccc21', '.', 'CC(C)O']",['CC(C)O'],"['CN1C(=O)c2ccccc2C1=O', 'C=O', 'Cc1cccc(C)c1', 'O=C1NC(=O)c2ccccc21', '.', 'CC(C)O']",10.0,23.5,100,5.0,0.2182,1488.505747
p84,Cc2ccc(Cc1ccc(C)cc1)cc2.Cc1cc(C)ccc1n5c(=O)c4ccc(C(=O)c3ccc2c(=O)n(C)c(=O)c2c3)cc4c5=O,ipa,CC(C)O,82.3,,,15.0,,,,,"['CN1C(=O)c2ccccc2C1=O', 'C=O', 'Cc1cccc(C)c1', 'O=C1NC(=O)c2ccccc21', '.', 'CC(C)O']",['CC(C)O'],"['CN1C(=O)c2ccccc2C1=O', 'C=O', 'Cc1cccc(C)c1', 'O=C1NC(=O)c2ccccc21', '.', 'CC(C)O']",20.5,23.5,60,1.0,0.0496,5265.366081
p84,Cc2ccc(Cc1ccc(C)cc1)cc2.Cc1cc(C)ccc1n5c(=O)c4ccc(C(=O)c3ccc2c(=O)n(C)c(=O)c2c3)cc4c5=O,ipa,CC(C)O,82.3,,,15.0,,,,,"['CN1C(=O)c2ccccc2C1=O', 'C=O', 'Cc1cccc(C)c1', 'O=C1NC(=O)c2ccccc21', '.', 'CC(C)O']",['CC(C)O'],"['CN1C(=O)c2ccccc2C1=O', 'C=O', 'Cc1cccc(C)c1', 'O=C1NC(=O)c2ccccc21', '.', 'CC(C)O']",20.5,23.5,70,1.0,0.0695,5265.366081
p84,Cc2ccc(Cc1ccc(C)cc1)cc2.Cc1cc(C)ccc1n5c(=O)c4ccc(C(=O)c3ccc2c(=O)n(C)c(=O)c2c3)cc4c5=O,ipa,CC(C)O,82.3,,,15.0,,,,,"['CN1C(=O)c2ccccc2C1=O', 'C=O', 'Cc1cccc(C)c1', 'O=C1NC(=O)c2ccccc21', '.', 'CC(C)O']",['CC(C)O'],"['CN1C(=O)c2ccccc2C1=O', 'C=O', 'Cc1cccc(C)c1', 'O=C1NC(=O)c2ccccc21', '.', 'CC(C)O']",20.5,23.5,80,1.0,0.1072,5265.366081
p84,Cc2ccc(Cc1ccc(C)cc1)cc2.Cc1cc(C)ccc1n5c(=O)c4ccc(C(=O)c3ccc2c(=O)n(C)c(=O)c2c3)cc4c5=O,ipa,CC(C)O,82.3,,,15.0,,,,,"['CN1C(=O)c2ccccc2C1=O', 'C=O', 'Cc1cccc(C)c1', 'O=C1NC(=O)c2ccccc21', '.', 'CC(C)O']",['CC(C)O'],"['CN1C(=O)c2ccccc2C1=O', 'C=O', 'Cc1cccc(C)c1', 'O=C1NC(=O)c2ccccc21', '.', 'CC(C)O']",20.5,23.5,90,1.0,0.1728,5265.366081
pva,C(C)C(C)(O),ipa,CC(C)O,74.0,,,10.0,,,,,"['CCC(C)O', '.', 'CC(C)O']",['CC(C)O'],"['CCC(C)O', '.', 'CC(C)O']",22.0,23.5,25,1.3,0.0293,4.930693
pva,C(C)C(C)(O),ipa,CC(C)O,74.0,,,5.0,,,,,"['CCC(C)O', '.', 'CC(C)O']",['CC(C)O'],"['CCC(C)O', '.', 'CC(C)O']",22.0,23.5,25,1.3,0.0299,5.108911
pva,C(C)C(C)(O),ipa,CC(C)O,74.0,,,15.0,,,,,"['CCC(C)O', '.', 'CC(C)O']",['CC(C)O'],"['CCC(C)O', '.', 'CC(C)O']",22.0,23.5,25,1.3,0.0304,5.643564
pva,C(C)C(C)(O),ipa,CC(C)O,74.0,,,20.0,,,,,"['CCC(C)O', '.', 'CC(C)O']",['CC(C)O'],"['CCC(C)O', '.', 'CC(C)O']",22.0,23.5,25,1.3,0.0561,8.19802
pva,C(C)C(C)(O),ipa,CC(C)O,74.0,,,25.0,,,,,"['CCC(C)O', '.', 'CC(C)O']",['CC(C)O'],"['CCC(C)O', '.', 'CC(C)O']",22.0,23.5,75,1.3,0.495,12.33663366
pva,C(C)C(C)(O),ipa,CC(C)O,74.0,,,20.0,,,,,"['CCC(C)O', '.', 'CC(C)O']",['CC(C)O'],"['CCC(C)O', '.', 'CC(C)O']",22.0,23.5,75,1.3,0.9406,2.98019802
pva,C(C)C(C)(O),ipa,CC(C)O,74.0,,,15.0,,,,,"['CCC(C)O', '.', 'CC(C)O']",['CC(C)O'],"['CCC(C)O', '.', 'CC(C)O']",22.0,23.5,75,1.3,2.1782,2.00990099
pva,C(C)C(C)(O),ipa,CC(C)O,74.0,,,5.0,,,,,"['CCC(C)O', '.', 'CC(C)O']",['CC(C)O'],"['CCC(C)O', '.', 'CC(C)O']",22.0,23.5,75,1.3,7.8713,3.673267327
pva,C(C)C(C)(O),ipa,CC(C)O,74.0,,,10.0,,,,,"['CCC(C)O', '.', 'CC(C)O']",['CC(C)O'],"['CCC(C)O', '.', 'CC(C)O']",10.0,23.5,30,0.06,0.123,77.0
pva,C(C)C(C)(O),ipa,CC(C)O,74.0,,,12.5,,,,,"['CCC(C)O', '.', 'CC(C)O']",['CC(C)O'],"['CCC(C)O', '.', 'CC(C)O']",10.0,23.5,30,0.06,0.138,59.0
pva,C(C)C(C)(O),ipa,CC(C)O,74.0,,,15.0,,,,,"['CCC(C)O', '.', 'CC(C)O']",['CC(C)O'],"['CCC(C)O', '.', 'CC(C)O']",10.0,23.5,30,0.06,0.145,46.0
pva,C(C)C(C)(O),ipa,CC(C)O,74.0,,,20.0,,,,,"['CCC(C)O', '.', 'CC(C)O']",['CC(C)O'],"['CCC(C)O', '.', 'CC(C)O']",10.0,23.5,30,0.06,0.163,30.0
pva,C(C)C(C)(O),ethanol,CCO,74.0,,,8.0,,,,,"['CCC(C)O', '.', 'CCO']",['CCO'],"['CCC(C)O', '.', 'CCO']",22.0,26.5,50,3.0,0.0328,115.15
pva,C(C)C(C)(O),ethanol,CCO,74.0,,,10.0,,,,,"['CCC(C)O', '.', 'CCO']",['CCO'],"['CCC(C)O', '.', 'CCO']",22.0,26.5,40,3.0,0.0355,77.91
pva,C(C)C(C)(O),ipa,CC(C)O,74.0,,,8.0,,,,,"['CCC(C)O', '.', 'CC(C)O']",['CC(C)O'],"['CCC(C)O', '.', 'CC(C)O']",22.0,23.5,50,3.0,0.0357,148.27
pva,C(C)C(C)(O),ethanol,CCO,74.0,,,15.0,,,,,"['CCC(C)O', '.', 'CCO']",['CCO'],"['CCC(C)O', '.', 'CCO']",22.0,26.5,40,3.0,0.0376,103.76
pva,C(C)C(C)(O),ipa,CC(C)O,74.0,,,10.0,,,,,"['CCC(C)O', '.', 'CC(C)O']",['CC(C)O'],"['CCC(C)O', '.', 'CC(C)O']",22.0,23.5,40,3.0,0.0419,137.44
pva,C(C)C(C)(O),ethanol,CCO,74.0,,,10.0,,,,,"['CCC(C)O', '.', 'CCO']",['CCO'],"['CCC(C)O', '.', 'CCO']",22.0,26.5,40,3.0,0.044,57.29
pva,C(C)C(C)(O),ipa,CC(C)O,74.0,,,12.5,,,,,"['CCC(C)O', '.', 'CC(C)O']",['CC(C)O'],"['CCC(C)O', '.', 'CC(C)O']",22.0,23.5,50,3.0,0.0484,95.29
pva,C(C)C(C)(O),ipa,CC(C)O,74.0,,,12.5,,,,,"['CCC(C)O', '.', 'CC(C)O']",['CC(C)O'],"['CCC(C)O', '.', 'CC(C)O']",22.0,23.5,50,3.0,0.0487,98.1
pva,C(C)C(C)(O),ethanol,CCO,74.0,,,12.5,,,,,"['CCC(C)O', '.', 'CCO']",['CCO'],"['CCC(C)O', '.', 'CCO']",22.0,26.5,50,3.0,0.052,80.66
pva,C(C)C(C)(O),ethanol,CCO,74.0,,,10.0,,,,,"['CCC(C)O', '.', 'CCO']",['CCO'],"['CCC(C)O', '.', 'CCO']",22.0,26.5,60,3.0,0.0522,90.23
pva,C(C)C(C)(O),ipa,CC(C)O,74.0,,,12.5,,,,,"['CCC(C)O', '.', 'CC(C)O']",['CC(C)O'],"['CCC(C)O', '.', 'CC(C)O']",22.0,23.5,50,3.0,0.0528,105.46
pva,C(C)C(C)(O),ipa,CC(C)O,74.0,,,12.5,,,,,"['CCC(C)O', '.', 'CC(C)O']",['CC(C)O'],"['CCC(C)O', '.', 'CC(C)O']",22.0,23.5,50,3.0,0.0535,92.23
pva,C(C)C(C)(O),ipa,CC(C)O,74.0,,,12.5,,,,,"['CCC(C)O', '.', 'CC(C)O']",['CC(C)O'],"['CCC(C)O', '.', 'CC(C)O']",22.0,23.5,33,3.0,0.0538,120.46
pva,C(C)C(C)(O),ipa,CC(C)O,74.0,,,12.5,,,,,"['CCC(C)O', '.', 'CC(C)O']",['CC(C)O'],"['CCC(C)O', '.', 'CC(C)O']",22.0,23.5,50,3.0,0.0548,98.09
pva,C(C)C(C)(O),ipa,CC(C)O,74.0,,,12.5,,,,,"['CCC(C)O', '.', 'CC(C)O']",['CC(C)O'],"['CCC(C)O', '.', 'CC(C)O']",22.0,23.5,50,3.0,0.055,96.37
pva,C(C)C(C)(O),ethanol,CCO,74.0,,,12.5,,,,,"['CCC(C)O', '.', 'CCO']",['CCO'],"['CCC(C)O', '.', 'CCO']",22.0,26.5,50,3.0,0.0559,82.22
pva,C(C)C(C)(O),ethanol,CCO,74.0,,,12.5,,,,,"['CCC(C)O', '.', 'CCO']",['CCO'],"['CCC(C)O', '.', 'CCO']",22.0,26.5,50,3.0,0.0571,87.19
pva,C(C)C(C)(O),ethanol,CCO,74.0,,,12.5,,,,,"['CCC(C)O', '.', 'CCO']",['CCO'],"['CCC(C)O', '.', 'CCO']",22.0,26.5,50,3.0,0.0571,75.07
pva,C(C)C(C)(O),ethanol,CCO,74.0,,,12.5,,,,,"['CCC(C)O', '.', 'CCO']",['CCO'],"['CCC(C)O', '.', 'CCO']",22.0,26.5,50,3.0,0.058,90.14
pva,C(C)C(C)(O),ipa,CC(C)O,74.0,,,12.5,,,,,"['CCC(C)O', '.', 'CC(C)O']",['CC(C)O'],"['CCC(C)O', '.', 'CC(C)O']",22.0,23.5,50,3.0,0.0587,95.27
pva,C(C)C(C)(O),ethanol,CCO,74.0,,,15.0,,,,,"['CCC(C)O', '.', 'CCO']",['CCO'],"['CCC(C)O', '.', 'CCO']",22.0,26.5,40,3.0,0.0619,98.82
pva,C(C)C(C)(O),ethanol,CCO,74.0,,,12.5,,,,,"['CCC(C)O', '.', 'CCO']",['CCO'],"['CCC(C)O', '.', 'CCO']",22.0,26.5,50,3.0,0.0658,79.37
pva,C(C)C(C)(O),ethanol,CCO,74.0,,,10.0,,,,,"['CCC(C)O', '.', 'CCO']",['CCO'],"['CCC(C)O', '.', 'CCO']",22.0,26.5,60,3.0,0.0678,105.93
pva,C(C)C(C)(O),ipa,CC(C)O,74.0,,,10.0,,,,,"['CCC(C)O', '.', 'CC(C)O']",['CC(C)O'],"['CCC(C)O', '.', 'CC(C)O']",22.0,23.5,60,3.0,0.0683,92.11
pva,C(C)C(C)(O),ethanol,CCO,74.0,,,12.5,,,,,"['CCC(C)O', '.', 'CCO']",['CCO'],"['CCC(C)O', '.', 'CCO']",22.0,26.5,50,3.0,0.0688,71.06
pva,C(C)C(C)(O),ipa,CC(C)O,74.0,,,17.0,,,,,"['CCC(C)O', '.', 'CC(C)O']",['CC(C)O'],"['CCC(C)O', '.', 'CC(C)O']",22.0,23.5,50,3.0,0.0764,103.3
pva,C(C)C(C)(O),ipa,CC(C)O,74.0,,,15.0,,,,,"['CCC(C)O', '.', 'CC(C)O']",['CC(C)O'],"['CCC(C)O', '.', 'CC(C)O']",22.0,23.5,60,3.0,0.0853,69.11
pva,C(C)C(C)(O),ipa,CC(C)O,74.0,,,15.0,,,,,"['CCC(C)O', '.', 'CC(C)O']",['CC(C)O'],"['CCC(C)O', '.', 'CC(C)O']",22.0,23.5,60,3.0,0.0916,88.81
pva,C(C)C(C)(O),ipa,CC(C)O,74.0,,,10.0,,,,,"['CCC(C)O', '.', 'CC(C)O']",['CC(C)O'],"['CCC(C)O', '.', 'CC(C)O']",22.0,23.5,60,3.0,0.0977,87.81
pva,C(C)C(C)(O),ethanol,CCO,74.0,,,12.5,,,,,"['CCC(C)O', '.', 'CCO']",['CCO'],"['CCC(C)O', '.', 'CCO']",22.0,26.5,67,3.0,0.1012,48.59
pva,C(C)C(C)(O),ethanol,CCO,74.0,,,15.0,,,,,"['CCC(C)O', '.', 'CCO']",['CCO'],"['CCC(C)O', '.', 'CCO']",22.0,26.5,60,3.0,0.1084,41.1
pva,C(C)C(C)(O),ethanol,CCO,74.0,,,15.0,,,,,"['CCC(C)O', '.', 'CCO']",['CCO'],"['CCC(C)O', '.', 'CCO']",22.0,26.5,60,3.0,0.11,52.64
pva,C(C)C(C)(O),ipa,CC(C)O,74.0,,,12.5,,,,,"['CCC(C)O', '.', 'CC(C)O']",['CC(C)O'],"['CCC(C)O', '.', 'CC(C)O']",22.0,23.5,67,3.0,0.1139,60.83
pva,C(C)C(C)(O),ipa,CC(C)O,74.0,,,10.0,,,,,"['CCC(C)O', '.', 'CC(C)O']",['CC(C)O'],"['CCC(C)O', '.', 'CC(C)O']",25.0,23.5,30,2.0,0.1505,125.0
pva,C(C)C(C)(O),ipa,CC(C)O,74.0,,,10.0,,,,,"['CCC(C)O', '.', 'CC(C)O']",['CC(C)O'],"['CCC(C)O', '.', 'CC(C)O']",50.0,23.5,30,6.7,0.1324,163.418803
pva,C(C)C(C)(O),ipa,CC(C)O,74.0,,,10.0,,,,,"['CCC(C)O', '.', 'CC(C)O']",['CC(C)O'],"['CCC(C)O', '.', 'CC(C)O']",50.0,23.5,40,0.06,0.1556,55.0
pva,C(C)C(C)(O),ipa,CC(C)O,74.0,,,10.0,,,,,"['CCC(C)O', '.', 'CC(C)O']",['CC(C)O'],"['CCC(C)O', '.', 'CC(C)O']",50.0,23.5,50,0.06,0.1886,36.0
pva,C(C)C(C)(O),ipa,CC(C)O,74.0,,,10.0,,,,,"['CCC(C)O', '.', 'CC(C)O']",['CC(C)O'],"['CCC(C)O', '.', 'CC(C)O']",50.0,23.5,60,0.06,0.2,23.0
chitosan,NC2C(O)C(OC1OC(CO)C(O(C))C(O)C1N)C(CO)OC2(C),ipa,CC(C)O,55.1,,,5.0,,,,,"['CO', 'O', 'CO', 'CC1OCCC(O)C1N', 'NC1COCCC1O', '.', 'CC(C)O']",['CC(C)O'],"['CO', 'O', 'CO', 'CC1OCCC(O)C1N', 'NC1COCCC1O', '.', 'CC(C)O']",45.0,23.5,60,3.0,0.127,3124.966463
chitosan,NC2C(O)C(OC1OC(CO)C(O(C))C(O)C1N)C(CO)OC2(C),ethanol,CCO,55.1,,,5.0,,,,,"['CO', 'O', 'CO', 'CC1OCCC(O)C1N', 'NC1COCCC1O', '.', 'CCO']",['CCO'],"['CO', 'O', 'CO', 'CC1OCCC(O)C1N', 'NC1COCCC1O', '.', 'CCO']",45.0,26.5,60,3.0,0.1438,444.991431
alginate,O=C(O)C1OC(C)C(O)C(O)C1O(C).O=C(O)C1OC(C)C(O)C(O)C1O(C),ethanol,CCO,37.37,,,5.0,,,,,"['CO', 'O=CO', 'CC1OCCC(O)C1O', '.', 'CCO']",['CCO'],"['CO', 'O=CO', 'CC1OCCC(O)C1O', '.', 'CCO']",45.0,26.5,60,3.0,0.2195,5587.953034
alginate,O=C(O)C1OC(C)C(O)C(O)C1O(C).O=C(O)C1OC(C)C(O)C(O)C1O(C),ipa,CC(C)O,37.37,,,5.0,,,,,"['CO', 'O=CO', 'CC1OCCC(O)C1O', '.', 'CC(C)O']",['CC(C)O'],"['CO', 'O=CO', 'CC1OCCC(O)C1O', '.', 'CC(C)O']",45.0,23.5,60,3.0,0.2328,3603.305055
chitosan,NC2C(O)C(OC1OC(CO)C(O(C))C(O)C1N)C(CO)OC2(C),ethanol,CCO,55.1,,,10.0,,,,,"['CO', 'O', 'CO', 'CC1OCCC(O)C1N', 'NC1COCCC1O', '.', 'CCO']",['CCO'],"['CO', 'O', 'CO', 'CC1OCCC(O)C1N', 'NC1COCCC1O', '.', 'CCO']",45.0,26.5,60,3.0,0.2876,178.956407
chitosan,NC2C(O)C(OC1OC(CO)C(O(C))C(O)C1N)C(CO)OC2(C),ipa,CC(C)O,55.1,,,10.0,,,,,"['CO', 'O', 'CO', 'CC1OCCC(O)C1N', 'NC1COCCC1O', '.', 'CC(C)O']",['CC(C)O'],"['CO', 'O', 'CO', 'CC1OCCC(O)C1N', 'NC1COCCC1O', '.', 'CC(C)O']",45.0,23.5,60,3.0,0.2963,1533.087739
alginate,O=C(O)C1OC(C)C(O)C(O)C1O(C).O=C(O)C1OC(C)C(O)C(O)C1O(C),ethanol,CCO,37.37,,,10.0,,,,,"['CO', 'O=CO', 'CC1OCCC(O)C1O', '.', 'CCO']",['CCO'],"['CO', 'O=CO', 'CC1OCCC(O)C1O', '.', 'CCO']",45.0,26.5,60,3.0,0.3103,2363.885157