Polymer,Polymer_SMILES,Solvent,Solvent_SMILES,Contact_angle,Thickness,Solvent_solubility_parameter,xw_wt_percent,Temperature,Permeate_pressure,J_total_flux,a_separation_factor,Polymer_BRICS,Solvent_BRICS,PS_pair_BRICS,Thickness_um,Solvent_solubility_parameter_Mpa_sqrt,Temp_C,Permeate_pressure_mbar,J_Total_flux_kg_m_2h_1,a_Separation_factor_wo
pdms,[Si](C)(C)(C)O(C),acetic_acid,CC(=O)O,108.08219,,,59.91,,,,,"['CO[Si](C)(C)C', '.', 'CC(=O)O']",['CC(=O)O'],"['CO[Si](C)(C)C', '.', 'CC(=O)O']",95.0,21.4,25,0.17,0.092476636,0.549292
pdms,[Si](C)(C)(C)O(C),acetic_acid,CC(=O)O,108.08219,,,60.66,,,,,"['CO[Si](C)(C)C', '.', 'CC(=O)O']",['CC(=O)O'],"['CO[Si](C)(C)C', '.', 'CC(=O)O']",95.0,21.4,25,0.17,0.09411215,0.531446
pdms,[Si](C)(C)(C)O(C),acetic_acid,CC(=O)O,108.08219,,,59.4,,,,,"['CO[Si](C)(C)C', '.', 'CC(=O)O']",['CC(=O)O'],"['CO[Si](C)(C)C', '.', 'CC(=O)O']",95.0,21.4,25,0.17,0.099345794,0.494707
pdms,[Si](C)(C)(C)O(C),acetic_acid,CC(=O)O,108.08219,,,90.0,,,,,"['CO[Si](C)(C)C', '.', 'CC(=O)O']",['CC(=O)O'],"['CO[Si](C)(C)C', '.', 'CC(=O)O']",95.0,21.4,55,0.17,0.116785714,0.680087
pbi,Cc5ccc(c4nc3cc(c2ccc1nc(C)oc1c2)ccc3o4)cc5,n-butanol,CCCCO,84.0,,,15.0,,,,,"['Cc1ccccc1', 'c1ccc2ocnc2c1', 'Cc1nc2ccccc2o1', '.', 'CCCCO']",['CCCCO'],"['Cc1ccccc1', 'c1ccc2ocnc2c1', 'Cc1nc2ccccc2o1', '.', 'CCCCO']",50.0,23.1,60,1.0,0.0116,5000.0
pbi,Cc5ccc(c4nc3cc(c2ccc1nc(C)oc1c2)ccc3o4)cc5,ipa,CC(C)O,84.0,,,15.0,,,,,"['Cc1ccccc1', 'c1ccc2ocnc2c1', 'Cc1nc2ccccc2o1', '.', 'CC(C)O']",['CC(C)O'],"['Cc1ccccc1', 'c1ccc2ocnc2c1', 'Cc1nc2ccccc2o1', '.', 'CC(C)O']",50.0,23.5,60,1.0,0.013,5000.0
ppsu,O=S(=O)(c1ccc(C)cc1)c4ccc(Oc3ccc(c2ccc(O(C))cc2)cc3)cc4,ethanol,CCO,92.2,,,15.0,,,,,"['Cc1ccc(S(=O)(=O)c2ccccc2)cc1', 'CO', 'O', 'c1ccccc1', '.', 'CCO']",['CCO'],"['Cc1ccc(S(=O)(=O)c2ccccc2)cc1', 'CO', 'O', 'c1ccccc1', '.', 'CCO']",16.0,26.5,23,1.0,0.004128686,558.309038
ppsu,O=S(=O)(c1ccc(C)cc1)c4ccc(Oc3ccc(c2ccc(O(C))cc2)cc3)cc4,ethanol,CCO,92.2,,,15.0,,,,,"['Cc1ccc(S(=O)(=O)c2ccccc2)cc1', 'CO', 'O', 'c1ccccc1', '.', 'CCO']",['CCO'],"['Cc1ccc(S(=O)(=O)c2ccccc2)cc1', 'CO', 'O', 'c1ccccc1', '.', 'CCO']",16.0,26.5,45,1.0,0.013699732,260.932945
ppsu,O=S(=O)(c1ccc(C)cc1)c4ccc(Oc3ccc(c2ccc(O(C))cc2)cc3)cc4,ethanol,CCO,92.2,,,15.0,,,,,"['Cc1ccc(S(=O)(=O)c2ccccc2)cc1', 'CO', 'O', 'c1ccccc1', '.', 'CCO']",['CCO'],"['Cc1ccc(S(=O)(=O)c2ccccc2)cc1', 'CO', 'O', 'c1ccccc1', '.', 'CCO']",16.0,26.5,60,1.0,0.025522788,225.947522
ppsu,O=S(=O)(c1ccc(C)cc1)c4ccc(Oc3ccc(c2ccc(O(C))cc2)cc3)cc4,ipa,CC(C)O,92.2,,,15.0,,,,,"['Cc1ccc(S(=O)(=O)c2ccccc2)cc1', 'CO', 'O', 'c1ccccc1', '.', 'CC(C)O']",['CC(C)O'],"['Cc1ccc(S(=O)(=O)c2ccccc2)cc1', 'CO', 'O', 'c1ccccc1', '.', 'CC(C)O']",16.0,23.5,60,1.0,0.026029412,1623.5
ppsu,O=S(=O)(c1ccc(C)cc1)c4ccc(Oc3ccc(c2ccc(O(C))cc2)cc3)cc4,n-butanol,CCCCO,92.2,,,15.0,,,,,"['Cc1ccc(S(=O)(=O)c2ccccc2)cc1', 'CO', 'O', 'c1ccccc1', '.', 'CCCCO']",['CCCCO'],"['Cc1ccc(S(=O)(=O)c2ccccc2)cc1', 'CO', 'O', 'c1ccccc1', '.', 'CCCCO']",16.0,23.1,60,1.0,0.028382353,3252.666667
pva,C(C)C(C)(O),ethanol,CCO,74.0,,,15.0,,,,,"['CCC(C)O', '.', 'CCO']",['CCO'],"['CCC(C)O', '.', 'CCO']",15.0,26.5,40,1.0,0.088,78.9
chitosan,NC2C(O)C(OC1OC(CO)C(O(C))C(O)C1N)C(CO)OC2(C),ethanol,CCO,42.0,,,10.0,,,,,"['CO', 'O', 'CO', 'CC1OCCC(O)C1N', 'NC1COCCC1O', '.', 'CCO']",['CCO'],"['CO', 'O', 'CO', 'CC1OCCC(O)C1N', 'NC1COCCC1O', '.', 'CCO']",40.0,26.5,80,5.0,0.055,152.23
pdms,[Si](C)(C)(C)O(C),ethanol,CCO,108.08219,,,94.0,,,,,"['CO[Si](C)(C)C', '.', 'CCO']",['CCO'],"['CO[Si](C)(C)C', '.', 'CCO']",10.0,26.5,40,1.0,0.33,0.13089
alginate,O=C(O)C1OC(C)C(O)C(O)C1O(C).O=C(O)C1OC(C)C(O)C(O)C1O(C),ethanol,CCO,37.37,,,5.0,,,,,"['CO', 'O=CO', 'CC1OCCC(O)C1O', '.', 'CCO']",['CCO'],"['CO', 'O=CO', 'CC1OCCC(O)C1O', '.', 'CCO']",45.0,26.5,50,3.0,0.049,560.2
alginate,O=C(O)C1OC(C)C(O)C(O)C1O(C).O=C(O)C1OC(C)C(O)C(O)C1O(C),ethanol,CCO,37.37,,,10.0,,,,,"['CO', 'O=CO', 'CC1OCCC(O)C1O', '.', 'CCO']",['CCO'],"['CO', 'O=CO', 'CC1OCCC(O)C1O', '.', 'CCO']",45.0,26.5,50,3.0,0.095,687.76
alginate,O=C(O)C1OC(C)C(O)C(O)C1O(C).O=C(O)C1OC(C)C(O)C(O)C1O(C),ethanol,CCO,37.37,,,15.0,,,,,"['CO', 'O=CO', 'CC1OCCC(O)C1O', '.', 'CCO']",['CCO'],"['CO', 'O=CO', 'CC1OCCC(O)C1O', '.', 'CCO']",45.0,26.5,50,3.0,0.174,613.78
alginate,O=C(O)C1OC(C)C(O)C(O)C1O(C).O=C(O)C1OC(C)C(O)C(O)C1O(C),ipa,CC(C)O,37.37,,,5.0,,,,,"['CO', 'O=CO', 'CC1OCCC(O)C1O', '.', 'CC(C)O']",['CC(C)O'],"['CO', 'O=CO', 'CC1OCCC(O)C1O', '.', 'CC(C)O']",45.0,23.5,50,3.0,0.217,1384.54
alginate,O=C(O)C1OC(C)C(O)C(O)C1O(C).O=C(O)C1OC(C)C(O)C(O)C1O(C),ethanol,CCO,37.37,,,10.0,,,,,"['CO', 'O=CO', 'CC1OCCC(O)C1O', '.', 'CCO']",['CCO'],"['CO', 'O=CO', 'CC1OCCC(O)C1O', '.', 'CCO']",45.0,26.5,40,3.0,0.229,289.98
alginate,O=C(O)C1OC(C)C(O)C(O)C1O(C).O=C(O)C1OC(C)C(O)C(O)C1O(C),ethanol,CCO,37.37,,,10.0,,,,,"['CO', 'O=CO', 'CC1OCCC(O)C1O', '.', 'CCO']",['CCO'],"['CO', 'O=CO', 'CC1OCCC(O)C1O', '.', 'CCO']",45.0,26.5,50,3.0,0.266,552.0
alginate,O=C(O)C1OC(C)C(O)C(O)C1O(C).O=C(O)C1OC(C)C(O)C(O)C1O(C),ethanol,CCO,37.37,,,10.0,,,,,"['CO', 'O=CO', 'CC1OCCC(O)C1O', '.', 'CCO']",['CCO'],"['CO', 'O=CO', 'CC1OCCC(O)C1O', '.', 'CCO']",45.0,26.5,60,3.0,0.275,1000.0
alginate,O=C(O)C1OC(C)C(O)C(O)C1O(C).O=C(O)C1OC(C)C(O)C(O)C1O(C),ethanol,CCO,37.37,,,20.0,,,,,"['CO', 'O=CO', 'CC1OCCC(O)C1O', '.', 'CCO']",['CCO'],"['CO', 'O=CO', 'CC1OCCC(O)C1O', '.', 'CCO']",45.0,26.5,50,3.0,0.305,652.04
alginate,O=C(O)C1OC(C)C(O)C(O)C1O(C).O=C(O)C1OC(C)C(O)C(O)C1O(C),ethanol,CCO,37.37,,,30.0,,,,,"['CO', 'O=CO', 'CC1OCCC(O)C1O', '.', 'CCO']",['CCO'],"['CO', 'O=CO', 'CC1OCCC(O)C1O', '.', 'CCO']",45.0,26.5,50,3.0,0.518,509.18
alginate,O=C(O)C1OC(C)C(O)C(O)C1O(C).O=C(O)C1OC(C)C(O)C(O)C1O(C),ipa,CC(C)O,37.37,,,10.0,,,,,"['CO', 'O=CO', 'CC1OCCC(O)C1O', '.', 'CC(C)O']",['CC(C)O'],"['CO', 'O=CO', 'CC1OCCC(O)C1O', '.', 'CC(C)O']",45.0,23.5,50,3.0,0.722,1608.87
alginate,O=C(O)C1OC(C)C(O)C(O)C1O(C).O=C(O)C1OC(C)C(O)C(O)C1O(C),ipa,CC(C)O,37.37,,,20.0,,,,,"['CO', 'O=CO', 'CC1OCCC(O)C1O', '.', 'CC(C)O']",['CC(C)O'],"['CO', 'O=CO', 'CC1OCCC(O)C1O', '.', 'CC(C)O']",45.0,23.5,50,3.0,2.228,1191.48
alginate,O=C(O)C1OC(C)C(O)C(O)C1O(C).O=C(O)C1OC(C)C(O)C(O)C1O(C),ipa,CC(C)O,37.37,,,30.0,,,,,"['CO', 'O=CO', 'CC1OCCC(O)C1O', '.', 'CC(C)O']",['CC(C)O'],"['CO', 'O=CO', 'CC1OCCC(O)C1O', '.', 'CC(C)O']",45.0,23.5,50,3.0,2.588,904.74
pan,CCC(C#N)(C),ethanol,CCO,95.0,,,24.5,,,,,"['CCC(C)C#N', '.', 'CCO']",['CCO'],"['CCC(C)C#N', '.', 'CCO']",40.0,26.5,50,17.6,0.004,143.0
pan,CCC(C#N)(C),ethanol,CCO,95.0,,,25.0,,,,,"['CCC(C)C#N', '.', 'CCO']",['CCO'],"['CCC(C)C#N', '.', 'CCO']",40.0,26.5,50,5.0,0.005,200.0
pan,CCC(C#N)(C),ethanol,CCO,95.0,,,25.0,,,,,"['CCC(C)C#N', '.', 'CCO']",['CCO'],"['CCC(C)C#N', '.', 'CCO']",40.0,26.5,50,1.0,0.002,256.0
pan,CCC(C#N)(C),ethanol,CCO,95.0,,,25.5,,,,,"['CCC(C)C#N', '.', 'CCO']",['CCO'],"['CCC(C)C#N', '.', 'CCO']",40.0,26.5,50,1.0,0.0055,256.0
pan,CCC(C#N)(C),ethanol,CCO,95.0,,,8.0,,,,,"['CCC(C)C#N', '.', 'CCO']",['CCO'],"['CCC(C)C#N', '.', 'CCO']",40.0,26.5,50,0.76,0.0007,281.0
pva,C(C)C(C)(O),ethanol,CCO,80.1,,,30.0,,,,,"['CCC(C)O', '.', 'CCO']",['CCO'],"['CCC(C)O', '.', 'CCO']",22.0,26.5,40,3.0,0.3062,70.588235
pva,C(C)C(C)(O),ethanol,CCO,74.0,,,30.0,,,,,"['CCC(C)O', '.', 'CCO']",['CCO'],"['CCC(C)O', '.', 'CCO']",22.0,26.5,25,3.0,0.3402,49.10828
pva,C(C)C(C)(O),ethanol,CCO,76.8,,,30.0,,,,,"['CCC(C)O', '.', 'CCO']",['CCO'],"['CCC(C)O', '.', 'CCO']",22.0,26.5,40,3.0,0.3552,67.189542
pva,C(C)C(C)(O),ethanol,CCO,74.0,,,30.0,,,,,"['CCC(C)O', '.', 'CCO']",['CCO'],"['CCC(C)O', '.', 'CCO']",22.0,26.5,40,3.0,0.3961,56.20915
pva,C(C)C(C)(O),ethanol,CCO,76.2,,,30.0,,,,,"['CCC(C)O', '.', 'CCO']",['CCO'],"['CCC(C)O', '.', 'CCO']",22.0,26.5,40,3.0,0.3989,59.142336
pva,C(C)C(C)(O),ethanol,CCO,70.7,,,30.0,,,,,"['CCC(C)O', '.', 'CCO']",['CCO'],"['CCC(C)O', '.', 'CCO']",22.0,26.5,40,3.0,0.4699,42.664234
pva,C(C)C(C)(O),ethanol,CCO,74.0,,,30.0,,,,,"['CCC(C)O', '.', 'CCO']",['CCO'],"['CCC(C)O', '.', 'CCO']",22.0,26.5,50,3.0,0.4948,58.853503
pva,C(C)C(C)(O),ethanol,CCO,74.0,,,50.0,,,,,"['CCC(C)O', '.', 'CCO']",['CCO'],"['CCC(C)O', '.', 'CCO']",22.0,26.5,25,3.0,0.8041,23.694268
pva,C(C)C(C)(O),ethanol,CCO,76.8,,,50.0,,,,,"['CCC(C)O', '.', 'CCO']",['CCO'],"['CCC(C)O', '.', 'CCO']",22.0,26.5,40,3.0,0.8291,33.72549
pva,C(C)C(C)(O),ethanol,CCO,76.2,,,50.0,,,,,"['CCC(C)O', '.', 'CCO']",['CCO'],"['CCC(C)O', '.', 'CCO']",22.0,26.5,40,3.0,0.929,31.678832
pva,C(C)C(C)(O),ethanol,CCO,80.1,,,60.0,,,,,"['CCC(C)O', '.', 'CCO']",['CCO'],"['CCC(C)O', '.', 'CCO']",22.0,26.5,40,3.0,0.9353,26.928105
pva,C(C)C(C)(O),ethanol,CCO,74.0,,,50.0,,,,,"['CCC(C)O', '.', 'CCO']",['CCO'],"['CCC(C)O', '.', 'CCO']",22.0,26.5,40,3.0,0.968,29.803922
pva,C(C)C(C)(O),ethanol,CCO,70.7,,,50.0,,,,,"['CCC(C)O', '.', 'CCO']",['CCO'],"['CCC(C)O', '.', 'CCO']",22.0,26.5,40,3.0,1.0656,25.930657
pva,C(C)C(C)(O),ethanol,CCO,74.0,,,50.0,,,,,"['CCC(C)O', '.', 'CCO']",['CCO'],"['CCC(C)O', '.', 'CCO']",22.0,26.5,50,3.0,1.0722,29.808917
pva,C(C)C(C)(O),ethanol,CCO,76.8,,,60.0,,,,,"['CCC(C)O', '.', 'CCO']",['CCO'],"['CCC(C)O', '.', 'CCO']",22.0,26.5,40,3.0,1.2212,23.79085
pva,C(C)C(C)(O),ethanol,CCO,76.2,,,60.0,,,,,"['CCC(C)O', '.', 'CCO']",['CCO'],"['CCC(C)O', '.', 'CCO']",22.0,26.5,40,3.0,1.2295,24.014599
pva,C(C)C(C)(O),ethanol,CCO,70.7,,,60.0,,,,,"['CCC(C)O', '.', 'CCO']",['CCO'],"['CCC(C)O', '.', 'CCO']",22.0,26.5,40,3.0,1.3388,19.79927
pva,C(C)C(C)(O),ethanol,CCO,74.0,,,60.0,,,,,"['CCC(C)O', '.', 'CCO']",['CCO'],"['CCC(C)O', '.', 'CCO']",22.0,26.5,40,3.0,1.352,19.869281
pva,C(C)C(C)(O),ethanol,CCO,80.1,,,70.0,,,,,"['CCC(C)O', '.', 'CCO']",['CCO'],"['CCC(C)O', '.', 'CCO']",22.0,26.5,40,3.0,1.352,19.084967
pva,C(C)C(C)(O),ethanol,CCO,76.8,,,70.0,,,,,"['CCC(C)O', '.', 'CCO']",['CCO'],"['CCC(C)O', '.', 'CCO']",22.0,26.5,40,3.0,1.5644,16.993464
pva,C(C)C(C)(O),ethanol,CCO,76.2,,,70.0,,,,,"['CCC(C)O', '.', 'CCO']",['CCO'],"['CCC(C)O', '.', 'CCO']",22.0,26.5,40,3.0,1.5683,17.372263
pva,C(C)C(C)(O),ethanol,CCO,74.0,,,60.0,,,,,"['CCC(C)O', '.', 'CCO']",['CCO'],"['CCC(C)O', '.', 'CCO']",22.0,26.5,50,3.0,1.6804,22.929936
pva,C(C)C(C)(O),ethanol,CCO,74.0,,,80.0,,,,,"['CCC(C)O', '.', 'CCO']",['CCO'],"['CCC(C)O', '.', 'CCO']",22.0,26.5,25,3.0,1.7526,9.745223
pva,C(C)C(C)(O),ethanol,CCO,80.1,,,80.0,,,,,"['CCC(C)O', '.', 'CCO']",['CCO'],"['CCC(C)O', '.', 'CCO']",22.0,26.5,40,3.0,1.7686,12.026144
pva,C(C)C(C)(O),ethanol,CCO,74.0,,,70.0,,,,,"['CCC(C)O', '.', 'CCO']",['CCO'],"['CCC(C)O', '.', 'CCO']",22.0,26.5,40,3.0,1.8422,12.026144
pva,C(C)C(C)(O),ethanol,CCO,74.0,,,90.0,,,,,"['CCC(C)O', '.', 'CCO']",['CCO'],"['CCC(C)O', '.', 'CCO']",22.0,26.5,25,3.0,1.9691,4.968153
pva,C(C)C(C)(O),ethanol,CCO,76.8,,,80.0,,,,,"['CCC(C)O', '.', 'CCO']",['CCO'],"['CCC(C)O', '.', 'CCO']",22.0,26.5,40,3.0,1.981,11.24183
pva,C(C)C(C)(O),ethanol,CCO,80.1,,,90.0,,,,,"['CCC(C)O', '.', 'CCO']",['CCO'],"['CCC(C)O', '.', 'CCO']",22.0,26.5,40,3.0,2.1444,6.27451
pva,C(C)C(C)(O),ethanol,CCO,76.2,,,90.0,,,,,"['CCC(C)O', '.', 'CCO']",['CCO'],"['CCC(C)O', '.', 'CCO']",22.0,26.5,40,3.0,2.1585,6.770073
pva,C(C)C(C)(O),ethanol,CCO,76.8,,,90.0,,,,,"['CCC(C)O', '.', 'CCO']",['CCO'],"['CCC(C)O', '.', 'CCO']",22.0,26.5,40,3.0,2.2507,6.27451
pva,C(C)C(C)(O),ethanol,CCO,74.0,,,80.0,,,,,"['CCC(C)O', '.', 'CCO']",['CCO'],"['CCC(C)O', '.', 'CCO']",22.0,26.5,40,3.0,2.2833,9.150327
pva,C(C)C(C)(O),ethanol,CCO,74.0,,,70.0,,,,,"['CCC(C)O', '.', 'CCO']",['CCO'],"['CCC(C)O', '.', 'CCO']",22.0,26.5,50,3.0,2.4433,13.375796
pva,C(C)C(C)(O),ethanol,CCO,74.0,,,90.0,,,,,"['CCC(C)O', '.', 'CCO']",['CCO'],"['CCC(C)O', '.', 'CCO']",22.0,26.5,40,3.0,2.4549,5.228758
pva,C(C)C(C)(O),ethanol,CCO,70.7,,,90.0,,,,,"['CCC(C)O', '.', 'CCO']",['CCO'],"['CCC(C)O', '.', 'CCO']",22.0,26.5,40,3.0,2.7158,5.109489
pva,C(C)C(C)(O),ethanol,CCO,74.0,,,80.0,,,,,"['CCC(C)O', '.', 'CCO']",['CCO'],"['CCC(C)O', '.', 'CCO']",22.0,26.5,50,3.0,2.9897,10.509554
pva,C(C)C(C)(O),ethanol,CCO,74.0,,,90.0,,,,,"['CCC(C)O', '.', 'CCO']",['CCO'],"['CCC(C)O', '.', 'CCO']",22.0,26.5,50,3.0,3.2577,5.541401
pdms,[Si](C)(C)(C)O(C),ethanol,CCO,108.08219,,,90.0,,,,,"['CO[Si](C)(C)C', '.', 'CCO']",['CCO'],"['CO[Si](C)(C)C', '.', 'CCO']",200.0,26.5,25,2.0,0.041,0.108578
ptmsp,C/C(C)=C(C)/[Si](C)(C)C,ethanol,CCO,100.0,,,95.0,,,,,"['CCC', 'CC[Si](C)(C)C', '.', 'CCO']",['CCO'],"['CCC', 'CC[Si](C)(C)C', '.', 'CCO']",79.72,26.5,50,0.04,0.3594,0.042361
ptmsp,C/C(C)=C(C)/[Si](C)(C)C,ethanol,CCO,100.0,,,95.0,,,,,"['CCC', 'CC[Si](C)(C)C', '.', 'CCO']",['CCO'],"['CCC', 'CC[Si](C)(C)C', '.', 'CCO']",44.34,26.5,50,0.04,0.6359,0.041256
ptmsp,C/C(C)=C(C)/[Si](C)(C)C,ethanol,CCO,100.0,,,95.0,,,,,"['CCC', 'CC[Si](C)(C)C', '.', 'CCO']",['CCO'],"['CCC', 'CC[Si](C)(C)C', '.', 'CCO']",32.55,26.5,50,0.04,0.8295,0.041497
ptmsp,C/C(C)=C(C)/[Si](C)(C)C,ethanol,CCO,100.0,,,95.0,,,,,"['CCC', 'CC[Si](C)(C)C', '.', 'CCO']",['CCO'],"['CCC', 'CC[Si](C)(C)C', '.', 'CCO']",15.8,26.5,50,0.04,1.7213,0.0449
ptmsp,C/C(C)=C(C)/[Si](C)(C)C,ethanol,CCO,100.0,,,95.0,,,,,"['CCC', 'CC[Si](C)(C)C', '.', 'CCO']",['CCO'],"['CCC', 'CC[Si](C)(C)C', '.', 'CCO']",8.15,26.5,50,0.04,2.6557,0.044975
ptmsp,C/C(C)=C(C)/[Si](C)(C)C,ethanol,CCO,100.0,,,95.0,,,,,"['CCC', 'CC[Si](C)(C)C', '.', 'CCO']",['CCO'],"['CCC', 'CC[Si](C)(C)C', '.', 'CCO']",7.82,26.5,50,0.04,2.459,0.047861
ptmsp,C/C(C)=C(C)/[Si](C)(C)C,ethanol,CCO,100.0,,,95.0,,,,,"['CCC', 'CC[Si](C)(C)C', '.', 'CCO']",['CCO'],"['CCC', 'CC[Si](C)(C)C', '.', 'CCO']",4.37,26.5,50,0.04,3.9344,0.048641
ptmsp,C/C(C)=C(C)/[Si](C)(C)C,ethanol,CCO,100.0,,,95.0,,,,,"['CCC', 'CC[Si](C)(C)C', '.', 'CCO']",['CCO'],"['CCC', 'CC[Si](C)(C)C', '.', 'CCO']",4.37,26.5,50,0.04,4.0328,0.053673
pdms,[Si](C)(C)(C)O(C),ethanol,CCO,108.08219,,,95.0,,,,,"['CO[Si](C)(C)C', '.', 'CCO']",['CCO'],"['CO[Si](C)(C)C', '.', 'CCO']",4.0,26.5,50,0.04,1.3,0.140845
pdms,[Si](C)(C)(C)O(C),ethanol,CCO,108.08219,,,95.0,,,,,"['CO[Si](C)(C)C', '.', 'CCO']",['CCO'],"['CO[Si](C)(C)C', '.', 'CCO']",4.0,26.5,50,0.04,2.6,0.149254
ptmsp,C/C(C)=C(C)/[Si](C)(C)C,ethanol,CCO,100.0,,,95.0,,,,,"['CCC', 'CC[Si](C)(C)C', '.', 'CCO']",['CCO'],"['CCC', 'CC[Si](C)(C)C', '.', 'CCO']",2.35,26.5,50,0.04,5.2623,0.052263
ptmsp,C/C(C)=C(C)/[Si](C)(C)C,ethanol,CCO,100.0,,,95.0,,,,,"['CCC', 'CC[Si](C)(C)C', '.', 'CCO']",['CCO'],"['CCC', 'CC[Si](C)(C)C', '.', 'CCO']",2.02,26.5,50,0.04,4.6721,0.066174
ptmsp,C/C(C)=C(C)/[Si](C)(C)C,ethanol,CCO,100.0,,,95.0,,,,,"['CCC', 'CC[Si](C)(C)C', '.', 'CCO']",['CCO'],"['CCC', 'CC[Si](C)(C)C', '.', 'CCO']",1.93,26.5,50,0.04,4.9672,0.071743
ptmsp,C/C(C)=C(C)/[Si](C)(C)C,ethanol,CCO,100.0,,,95.0,,,,,"['CCC', 'CC[Si](C)(C)C', '.', 'CCO']",['CCO'],"['CCC', 'CC[Si](C)(C)C', '.', 'CCO']",1.43,26.5,50,0.04,5.9508,0.064043
pdms,[Si](C)(C)(C)O(C),ethanol,CCO,108.08219,,,95.0,,,,,"['CO[Si](C)(C)C', '.', 'CCO']",['CCO'],"['CO[Si](C)(C)C', '.', 'CCO']",100.0,26.5,50,4.0,0.0967,0.123977
pva,C(C)C(C)(O),ethanol,CCO,69.6,,,10.0,,,,,"['CCC(C)O', '.', 'CCO']",['CCO'],"['CCC(C)O', '.', 'CCO']",40.0,26.5,40,3.5,0.0791,519.756839
pva,C(C)C(C)(O),ethanol,CCO,69.6,,,10.0,,,,,"['CCC(C)O', '.', 'CCO']",['CCO'],"['CCC(C)O', '.', 'CCO']",40.0,26.5,60,3.5,0.1146,211.550152
pdms,[Si](C)(C)(C)O(C),ethanol,CCO,103.72,,,95.0,,,,,"['CO[Si](C)(C)C', '.', 'CCO']",['CCO'],"['CO[Si](C)(C)C', '.', 'CCO']",8.9,26.5,40,1.0,0.3812,0.175258
chitosan,NC2C(O)C(OC1OC(CO)C(O(C))C(O)C1N)C(CO)OC2(C),ethanol,CCO,41.21,,,10.0,,,,,"['CO', 'O', 'CO', 'CC1OCCC(O)C1N', 'NC1COCCC1O', '.', 'CCO']",['CCO'],"['CO', 'O', 'CO', 'CC1OCCC(O)C1N', 'NC1COCCC1O', '.', 'CCO']",25.0,26.5,80,1.0,0.0548,158.2938
alginate,O=C(O)C1OC(C)C(O)C(O)C1O(C).O=C(O)C1OC(C)C(O)C(O)C1O(C),ethanol,CCO,38.74,,,3.0,,,,,"['CO', 'O=CO', 'CC1OCCC(O)C1O', '.', 'CCO']",['CCO'],"['CO', 'O=CO', 'CC1OCCC(O)C1O', '.', 'CCO']",28.0,26.5,25,3.0,0.1504,64.779874
alginate,O=C(O)C1OC(C)C(O)C(O)C1O(C).O=C(O)C1OC(C)C(O)C(O)C1O(C),ethanol,CCO,31.43,,,3.0,,,,,"['CO', 'O=CO', 'CC1OCCC(O)C1O', '.', 'CCO']",['CCO'],"['CO', 'O=CO', 'CC1OCCC(O)C1O', '.', 'CCO']",28.0,26.5,25,3.0,0.1698,27.044025
alginate,O=C(O)C1OC(C)C(O)C(O)C1O(C).O=C(O)C1OC(C)C(O)C(O)C1O(C),ethanol,CCO,55.57,,,3.0,,,,,"['CO', 'O=CO', 'CC1OCCC(O)C1O', '.', 'CCO']",['CCO'],"['CO', 'O=CO', 'CC1OCCC(O)C1O', '.', 'CCO']",28.0,26.5,25,3.0,0.2589,23.27044
alginate,O=C(O)C1OC(C)C(O)C(O)C1O(C).O=C(O)C1OC(C)C(O)C(O)C1O(C),ethanol,CCO,34.04,,,3.0,,,,,"['CO', 'O=CO', 'CC1OCCC(O)C1O', '.', 'CCO']",['CCO'],"['CO', 'O=CO', 'CC1OCCC(O)C1O', '.', 'CCO']",28.0,26.5,25,3.0,0.2705,55.974843
pva,C(C)C(C)(O),ethanol,CCO,59.0,,,30.0,,,,,"['CCC(C)O', '.', 'CCO']",['CCO'],"['CCC(C)O', '.', 'CCO']",45.0,26.5,22,0.3,0.0322,214.507772
pva,C(C)C(C)(O),ethanol,CCO,59.0,,,50.0,,,,,"['CCC(C)O', '.', 'CCO']",['CCO'],"['CCC(C)O', '.', 'CCO']",45.0,26.5,22,0.3,0.1074,55.958549
pva,C(C)C(C)(O),ethanol,CCO,70.0,,,30.0,,,,,"['CCC(C)O', '.', 'CCO']",['CCO'],"['CCC(C)O', '.', 'CCO']",45.0,26.5,22,0.3,0.1202,9.326425
pva,C(C)C(C)(O),ethanol,CCO,59.0,,,70.0,,,,,"['CCC(C)O', '.', 'CCO']",['CCO'],"['CCC(C)O', '.', 'CCO']",45.0,26.5,22,0.3,0.1868,9.326425
chitosan,NC2C(O)C(OC1OC(CO)C(O(C))C(O)C1N)C(CO)OC2(C),ethanol,CCO,55.1,,,10.0,,,,,"['CO', 'O', 'CO', 'CC1OCCC(O)C1N', 'NC1COCCC1O', '.', 'CCO']",['CCO'],"['CO', 'O', 'CO', 'CC1OCCC(O)C1N', 'NC1COCCC1O', '.', 'CCO']",30.0,26.5,25,1.0,0.319,309.0
pdms,[Si](C)(C)(C)O(C),ethanol,CCO,108.08219,,,94.0,,,,,"['CO[Si](C)(C)C', '.', 'CCO']",['CCO'],"['CO[Si](C)(C)C', '.', 'CCO']",9.5,26.5,30,3.0,0.6523,0.121368
pdms,[Si](C)(C)(C)O(C),ethanol,CCO,108.08219,,,94.0,,,,,"['CO[Si](C)(C)C', '.', 'CCO']",['CCO'],"['CO[Si](C)(C)C', '.', 'CCO']",9.5,26.5,50,3.0,1.3071,0.118006
pdms,[Si](C)(C)(C)O(C),ethanol,CCO,108.08219,,,94.0,,,,,"['CO[Si](C)(C)C', '.', 'CCO']",['CCO'],"['CO[Si](C)(C)C', '.', 'CCO']",9.5,26.5,60,3.0,1.8706,0.114516
pdms,[Si](C)(C)(C)O(C),ethanol,CCO,108.08219,,,94.0,,,,,"['CO[Si](C)(C)C', '.', 'CCO']",['CCO'],"['CO[Si](C)(C)C', '.', 'CCO']",9.5,26.5,70,3.0,2.8299,0.121368
pdms,[Si](C)(C)(C)O(C),ethanol,CCO,108.08219,,,95.0,,,,,"['CO[Si](C)(C)C', '.', 'CCO']",['CCO'],"['CO[Si](C)(C)C', '.', 'CCO']",87.5,26.5,30,0.667,0.0319,0.1
pdms,[Si](C)(C)(C)O(C),ethanol,CCO,108.08219,,,95.0,,,,,"['CO[Si](C)(C)C', '.', 'CCO']",['CCO'],"['CO[Si](C)(C)C', '.', 'CCO']",6.0,26.5,30,0.667,0.625333333,0.111111