Polymer,Polymer_SMILES,Solvent,Solvent_SMILES,Contact_angle,Thickness,Solvent_solubility_parameter,xw_wt_percent,Temperature,Permeate_pressure,J_total_flux,a_separation_factor,Polymer_BRICS,Solvent_BRICS,PS_pair_BRICS,Thickness_um,Solvent_solubility_parameter_Mpa_sqrt,Temp_C,Permeate_pressure_mbar,J_Total_flux_kg_m_2h_1,a_Separation_factor_wo
alginate,O=C(O)C1OC(C)C(O)C(O)C1O(C).O=C(O)C1OC(C)C(O)C(O)C1O(C),ethanol,CCO,37.37,,,20.0,,,,,"['CO', 'O=CO', 'CC1OCCC(O)C1O', '.', 'CCO']",['CCO'],"['CO', 'O=CO', 'CC1OCCC(O)C1O', '.', 'CCO']",45.0,26.5,60,3.0,0.5297,1499.077811
chitosan,NC2C(O)C(OC1OC(CO)C(O(C))C(O)C1N)C(CO)OC2(C),ipa,CC(C)O,55.1,,,20.0,,,,,"['CO', 'O', 'CO', 'CC1OCCC(O)C1N', 'NC1COCCC1O', '.', 'CC(C)O']",['CC(C)O'],"['CO', 'O', 'CO', 'CC1OCCC(O)C1N', 'NC1COCCC1O', '.', 'CC(C)O']",45.0,23.5,60,3.0,0.8889,386.926848
alginate,O=C(O)C1OC(C)C(O)C(O)C1O(C).O=C(O)C1OC(C)C(O)C(O)C1O(C),ethanol,CCO,37.37,,,30.0,,,,,"['CO', 'O=CO', 'CC1OCCC(O)C1O', '.', 'CCO']",['CCO'],"['CO', 'O=CO', 'CC1OCCC(O)C1O', '.', 'CCO']",45.0,26.5,60,3.0,1.0065,1287.923625
chitosan,NC2C(O)C(OC1OC(CO)C(O(C))C(O)C1N)C(CO)OC2(C),ethanol,CCO,55.1,,,30.0,,,,,"['CO', 'O', 'CO', 'CC1OCCC(O)C1N', 'NC1COCCC1O', '.', 'CCO']",['CCO'],"['CO', 'O', 'CO', 'CC1OCCC(O)C1N', 'NC1COCCC1O', '.', 'CCO']",45.0,26.5,60,3.0,1.2486,41.246264
alginate,O=C(O)C1OC(C)C(O)C(O)C1O(C).O=C(O)C1OC(C)C(O)C(O)C1O(C),ipa,CC(C)O,37.37,,,30.0,,,,,"['CO', 'O=CO', 'CC1OCCC(O)C1O', '.', 'CC(C)O']",['CC(C)O'],"['CO', 'O=CO', 'CC1OCCC(O)C1O', '.', 'CC(C)O']",45.0,23.5,60,3.0,3.619,1000.0
alginate,O=C(O)C1OC(C)C(O)C(O)C1O(C).O=C(O)C1OC(C)C(O)C(O)C1O(C),ipa,CC(C)O,37.37,,,10.0,,,,,"['CO', 'O=CO', 'CC1OCCC(O)C1O', '.', 'CC(C)O']",['CC(C)O'],"['CO', 'O=CO', 'CC1OCCC(O)C1O', '.', 'CC(C)O']",40.0,23.5,30,1.33,0.0677,171.0
alginate,O=C(O)C1OC(C)C(O)C(O)C1O(C).O=C(O)C1OC(C)C(O)C(O)C1O(C),ipa,CC(C)O,37.37,,,10.0,,,,,"['CO', 'O=CO', 'CC1OCCC(O)C1O', '.', 'CC(C)O']",['CC(C)O'],"['CO', 'O=CO', 'CC1OCCC(O)C1O', '.', 'CC(C)O']",40.0,23.5,40,1.33,0.0753,123.35
alginate,O=C(O)C1OC(C)C(O)C(O)C1O(C).O=C(O)C1OC(C)C(O)C(O)C1O(C),ipa,CC(C)O,37.37,,,20.0,,,,,"['CO', 'O=CO', 'CC1OCCC(O)C1O', '.', 'CC(C)O']",['CC(C)O'],"['CO', 'O=CO', 'CC1OCCC(O)C1O', '.', 'CC(C)O']",40.0,23.5,30,1.33,0.0999,62.67
alginate,O=C(O)C1OC(C)C(O)C(O)C1O(C).O=C(O)C1OC(C)C(O)C(O)C1O(C),ipa,CC(C)O,37.37,,,25.0,,,,,"['CO', 'O=CO', 'CC1OCCC(O)C1O', '.', 'CC(C)O']",['CC(C)O'],"['CO', 'O=CO', 'CC1OCCC(O)C1O', '.', 'CC(C)O']",40.0,23.5,30,1.33,0.1,27.0
alginate,O=C(O)C1OC(C)C(O)C(O)C1O(C).O=C(O)C1OC(C)C(O)C(O)C1O(C),ipa,CC(C)O,37.37,,,10.0,,,,,"['CO', 'O=CO', 'CC1OCCC(O)C1O', '.', 'CC(C)O']",['CC(C)O'],"['CO', 'O=CO', 'CC1OCCC(O)C1O', '.', 'CC(C)O']",40.0,23.5,50,1.33,0.157,87.77
alginate,O=C(O)C1OC(C)C(O)C(O)C1O(C).O=C(O)C1OC(C)C(O)C(O)C1O(C),acetic_acid,CC(=O)O,37.37,,,10.0,,,,,"['CO', 'O=CO', 'CC1OCCC(O)C1O', '.', 'CC(=O)O']",['CC(=O)O'],"['CO', 'O=CO', 'CC1OCCC(O)C1O', '.', 'CC(=O)O']",30.0,21.4,30,13.3,0.022,15.7
alginate,O=C(O)C1OC(C)C(O)C(O)C1O(C).O=C(O)C1OC(C)C(O)C(O)C1O(C),acetic_acid,CC(=O)O,37.37,,,20.0,,,,,"['CO', 'O=CO', 'CC1OCCC(O)C1O', '.', 'CC(=O)O']",['CC(=O)O'],"['CO', 'O=CO', 'CC1OCCC(O)C1O', '.', 'CC(=O)O']",30.0,21.4,30,13.3,0.069,21.8
alginate,O=C(O)C1OC(C)C(O)C(O)C1O(C).O=C(O)C1OC(C)C(O)C(O)C1O(C),acetic_acid,CC(=O)O,37.37,,,30.0,,,,,"['CO', 'O=CO', 'CC1OCCC(O)C1O', '.', 'CC(=O)O']",['CC(=O)O'],"['CO', 'O=CO', 'CC1OCCC(O)C1O', '.', 'CC(=O)O']",30.0,21.4,30,13.3,0.258,6.31
alginate,O=C(O)C1OC(C)C(O)C(O)C1O(C).O=C(O)C1OC(C)C(O)C(O)C1O(C),acetic_acid,CC(=O)O,37.37,,,40.0,,,,,"['CO', 'O=CO', 'CC1OCCC(O)C1O', '.', 'CC(=O)O']",['CC(=O)O'],"['CO', 'O=CO', 'CC1OCCC(O)C1O', '.', 'CC(=O)O']",30.0,21.4,30,13.3,0.485,3.96
alginate,O=C(O)C1OC(C)C(O)C(O)C1O(C).O=C(O)C1OC(C)C(O)C(O)C1O(C),ethanol,CCO,37.37,,,5.0,,,,,"['CO', 'O=CO', 'CC1OCCC(O)C1O', '.', 'CCO']",['CCO'],"['CO', 'O=CO', 'CC1OCCC(O)C1O', '.', 'CCO']",10.0,26.5,30,13.3,0.028,22.331303
alginate,O=C(O)C1OC(C)C(O)C(O)C1O(C).O=C(O)C1OC(C)C(O)C(O)C1O(C),ethanol,CCO,37.37,,,4.0,,,,,"['CO', 'O=CO', 'CC1OCCC(O)C1O', '.', 'CCO']",['CCO'],"['CO', 'O=CO', 'CC1OCCC(O)C1O', '.', 'CCO']",10.0,26.5,40,13.3,0.036,27.914341
alginate,O=C(O)C1OC(C)C(O)C(O)C1O(C).O=C(O)C1OC(C)C(O)C(O)C1O(C),ethanol,CCO,37.37,,,10.0,,,,,"['CO', 'O=CO', 'CC1OCCC(O)C1O', '.', 'CCO']",['CCO'],"['CO', 'O=CO', 'CC1OCCC(O)C1O', '.', 'CCO']",10.0,26.5,30,13.3,0.036,10.556714
alginate,O=C(O)C1OC(C)C(O)C(O)C1O(C).O=C(O)C1OC(C)C(O)C(O)C1O(C),ethanol,CCO,37.37,,,15.0,,,,,"['CO', 'O=CO', 'CC1OCCC(O)C1O', '.', 'CCO']",['CCO'],"['CO', 'O=CO', 'CC1OCCC(O)C1O', '.', 'CCO']",10.0,26.5,30,13.3,0.053,6.58029
alginate,O=C(O)C1OC(C)C(O)C(O)C1O(C).O=C(O)C1OC(C)C(O)C(O)C1O(C),ethanol,CCO,37.37,,,4.0,,,,,"['CO', 'O=CO', 'CC1OCCC(O)C1O', '.', 'CCO']",['CCO'],"['CO', 'O=CO', 'CC1OCCC(O)C1O', '.', 'CCO']",10.0,26.5,60,13.3,0.121,23.932894
alginate,O=C(O)C1OC(C)C(O)C(O)C1O(C).O=C(O)C1OC(C)C(O)C(O)C1O(C),ipa,CC(C)O,37.37,,,10.0,,,,,"['CO', 'O=CO', 'CC1OCCC(O)C1O', '.', 'CC(C)O']",['CC(C)O'],"['CO', 'O=CO', 'CC1OCCC(O)C1O', '.', 'CC(C)O']",10.0,23.5,30,13.3,0.133,2423.432432
alginate,O=C(O)C1OC(C)C(O)C(O)C1O(C).O=C(O)C1OC(C)C(O)C(O)C1O(C),ipa,CC(C)O,37.37,,,15.0,,,,,"['CO', 'O=CO', 'CC1OCCC(O)C1O', '.', 'CC(C)O']",['CC(C)O'],"['CO', 'O=CO', 'CC1OCCC(O)C1O', '.', 'CC(C)O']",10.0,23.5,30,13.3,0.167,357.581197
alginate,O=C(O)C1OC(C)C(O)C(O)C1O(C).O=C(O)C1OC(C)C(O)C(O)C1O(C),ethanol,CCO,37.37,,,4.0,,,,,"['CO', 'O=CO', 'CC1OCCC(O)C1O', '.', 'CCO']",['CCO'],"['CO', 'O=CO', 'CC1OCCC(O)C1O', '.', 'CCO']",10.0,26.5,70,13.3,0.173,21.67079
alginate,O=C(O)C1OC(C)C(O)C(O)C1O(C).O=C(O)C1OC(C)C(O)C(O)C1O(C),ipa,CC(C)O,37.37,,,12.6,,,,,"['CO', 'O=CO', 'CC1OCCC(O)C1O', '.', 'CC(C)O']",['CC(C)O'],"['CO', 'O=CO', 'CC1OCCC(O)C1O', '.', 'CC(C)O']",10.0,23.5,40,13.3,0.183,534.978175
alginate,O=C(O)C1OC(C)C(O)C(O)C1O(C).O=C(O)C1OC(C)C(O)C(O)C1O(C),ipa,CC(C)O,37.37,,,12.6,,,,,"['CO', 'O=CO', 'CC1OCCC(O)C1O', '.', 'CC(C)O']",['CC(C)O'],"['CO', 'O=CO', 'CC1OCCC(O)C1O', '.', 'CC(C)O']",10.0,23.5,50,13.3,0.204,285.743152
alginate,O=C(O)C1OC(C)C(O)C(O)C1O(C).O=C(O)C1OC(C)C(O)C(O)C1O(C),ipa,CC(C)O,37.37,,,20.0,,,,,"['CO', 'O=CO', 'CC1OCCC(O)C1O', '.', 'CC(C)O']",['CC(C)O'],"['CO', 'O=CO', 'CC1OCCC(O)C1O', '.', 'CC(C)O']",10.0,23.5,30,13.3,0.232,223.272727
alginate,O=C(O)C1OC(C)C(O)C(O)C1O(C).O=C(O)C1OC(C)C(O)C(O)C1O(C),ipa,CC(C)O,37.37,,,12.6,,,,,"['CO', 'O=CO', 'CC1OCCC(O)C1O', '.', 'CC(C)O']",['CC(C)O'],"['CO', 'O=CO', 'CC1OCCC(O)C1O', '.', 'CC(C)O']",10.0,23.5,60,13.3,0.287,196.480147
alginate,O=C(O)C1OC(C)C(O)C(O)C1O(C).O=C(O)C1OC(C)C(O)C(O)C1O(C),ipa,CC(C)O,37.37,,,12.6,,,,,"['CO', 'O=CO', 'CC1OCCC(O)C1O', '.', 'CC(C)O']",['CC(C)O'],"['CO', 'O=CO', 'CC1OCCC(O)C1O', '.', 'CC(C)O']",10.0,23.5,70,13.3,0.332,159.806471
alginate,O=C(O)C1OC(C)C(O)C(O)C1O(C).O=C(O)C1OC(C)C(O)C(O)C1O(C),ipa,CC(C)O,37.37,,,10.0,,,,,"['CO', 'O=CO', 'CC1OCCC(O)C1O', '.', 'CC(C)O']",['CC(C)O'],"['CO', 'O=CO', 'CC1OCCC(O)C1O', '.', 'CC(C)O']",50.0,23.5,30,13.3,0.062,653.0
alginate,O=C(O)C1OC(C)C(O)C(O)C1O(C).O=C(O)C1OC(C)C(O)C(O)C1O(C),ipa,CC(C)O,37.37,,,12.6,,,,,"['CO', 'O=CO', 'CC1OCCC(O)C1O', '.', 'CC(C)O']",['CC(C)O'],"['CO', 'O=CO', 'CC1OCCC(O)C1O', '.', 'CC(C)O']",50.0,23.5,30,13.3,0.068,340.0
alginate,O=C(O)C1OC(C)C(O)C(O)C1O(C).O=C(O)C1OC(C)C(O)C(O)C1O(C),ipa,CC(C)O,37.37,,,12.6,,,,,"['CO', 'O=CO', 'CC1OCCC(O)C1O', '.', 'CC(C)O']",['CC(C)O'],"['CO', 'O=CO', 'CC1OCCC(O)C1O', '.', 'CC(C)O']",50.0,23.5,40,13.3,0.072,243.0
alginate,O=C(O)C1OC(C)C(O)C(O)C1O(C).O=C(O)C1OC(C)C(O)C(O)C1O(C),ipa,CC(C)O,37.37,,,20.0,,,,,"['CO', 'O=CO', 'CC1OCCC(O)C1O', '.', 'CC(C)O']",['CC(C)O'],"['CO', 'O=CO', 'CC1OCCC(O)C1O', '.', 'CC(C)O']",50.0,23.5,30,13.3,0.075,189.0
alginate,O=C(O)C1OC(C)C(O)C(O)C1O(C).O=C(O)C1OC(C)C(O)C(O)C1O(C),ipa,CC(C)O,37.37,,,12.6,,,,,"['CO', 'O=CO', 'CC1OCCC(O)C1O', '.', 'CC(C)O']",['CC(C)O'],"['CO', 'O=CO', 'CC1OCCC(O)C1O', '.', 'CC(C)O']",50.0,23.5,50,13.3,0.08,174.0
alginate,O=C(O)C1OC(C)C(O)C(O)C1O(C).O=C(O)C1OC(C)C(O)C(O)C1O(C),ipa,CC(C)O,37.37,,,12.6,,,,,"['CO', 'O=CO', 'CC1OCCC(O)C1O', '.', 'CC(C)O']",['CC(C)O'],"['CO', 'O=CO', 'CC1OCCC(O)C1O', '.', 'CC(C)O']",50.0,23.5,60,13.3,0.084,140.0
alginate,O=C(O)C1OC(C)C(O)C(O)C1O(C).O=C(O)C1OC(C)C(O)C(O)C1O(C),ipa,CC(C)O,37.37,,,12.6,,,,,"['CO', 'O=CO', 'CC1OCCC(O)C1O', '.', 'CC(C)O']",['CC(C)O'],"['CO', 'O=CO', 'CC1OCCC(O)C1O', '.', 'CC(C)O']",50.0,23.5,70,13.3,0.087,109.0
alginate,O=C(O)C1OC(C)C(O)C(O)C1O(C).O=C(O)C1OC(C)C(O)C(O)C1O(C),ipa,CC(C)O,37.37,,,30.0,,,,,"['CO', 'O=CO', 'CC1OCCC(O)C1O', '.', 'CC(C)O']",['CC(C)O'],"['CO', 'O=CO', 'CC1OCCC(O)C1O', '.', 'CC(C)O']",50.0,23.5,30,13.3,0.087,85.0
alginate,O=C(O)C1OC(C)C(O)C(O)C1O(C).O=C(O)C1OC(C)C(O)C(O)C1O(C),ipa,CC(C)O,37.37,,,40.0,,,,,"['CO', 'O=CO', 'CC1OCCC(O)C1O', '.', 'CC(C)O']",['CC(C)O'],"['CO', 'O=CO', 'CC1OCCC(O)C1O', '.', 'CC(C)O']",50.0,23.5,30,13.3,0.127,38.0
alginate,O=C(O)C1OC(C)C(O)C(O)C1O(C).O=C(O)C1OC(C)C(O)C(O)C1O(C),ipa,CC(C)O,37.37,,,50.0,,,,,"['CO', 'O=CO', 'CC1OCCC(O)C1O', '.', 'CC(C)O']",['CC(C)O'],"['CO', 'O=CO', 'CC1OCCC(O)C1O', '.', 'CC(C)O']",50.0,23.5,30,13.3,0.133,25.0
alginate,O=C(O)C1OC(C)C(O)C(O)C1O(C).O=C(O)C1OC(C)C(O)C(O)C1O(C),ethanol,CCO,37.37,,,20.0,,,,,"['CO', 'O=CO', 'CC1OCCC(O)C1O', '.', 'CCO']",['CCO'],"['CO', 'O=CO', 'CC1OCCC(O)C1O', '.', 'CCO']",62.5,26.5,30,13.3,0.04,12.0
alginate,O=C(O)C1OC(C)C(O)C(O)C1O(C).O=C(O)C1OC(C)C(O)C(O)C1O(C),ethanol,CCO,37.37,,,30.0,,,,,"['CO', 'O=CO', 'CC1OCCC(O)C1O', '.', 'CCO']",['CCO'],"['CO', 'O=CO', 'CC1OCCC(O)C1O', '.', 'CCO']",62.5,26.5,30,13.3,0.042,6.0
alginate,O=C(O)C1OC(C)C(O)C(O)C1O(C).O=C(O)C1OC(C)C(O)C(O)C1O(C),ipa,CC(C)O,37.37,,,10.0,,,,,"['CO', 'O=CO', 'CC1OCCC(O)C1O', '.', 'CC(C)O']",['CC(C)O'],"['CO', 'O=CO', 'CC1OCCC(O)C1O', '.', 'CC(C)O']",62.5,23.5,30,13.3,0.067,653.0
alginate,O=C(O)C1OC(C)C(O)C(O)C1O(C).O=C(O)C1OC(C)C(O)C(O)C1O(C),ipa,CC(C)O,37.37,,,10.0,,,,,"['CO', 'O=CO', 'CC1OCCC(O)C1O', '.', 'CC(C)O']",['CC(C)O'],"['CO', 'O=CO', 'CC1OCCC(O)C1O', '.', 'CC(C)O']",50.0,23.5,30,13.3,0.0679,653.0
alginate,O=C(O)C1OC(C)C(O)C(O)C1O(C).O=C(O)C1OC(C)C(O)C(O)C1O(C),ipa,CC(C)O,37.37,,,20.0,,,,,"['CO', 'O=CO', 'CC1OCCC(O)C1O', '.', 'CC(C)O']",['CC(C)O'],"['CO', 'O=CO', 'CC1OCCC(O)C1O', '.', 'CC(C)O']",50.0,23.5,30,13.3,0.1242,223.0
alginate,O=C(O)C1OC(C)C(O)C(O)C1O(C).O=C(O)C1OC(C)C(O)C(O)C1O(C),ipa,CC(C)O,37.37,,,30.0,,,,,"['CO', 'O=CO', 'CC1OCCC(O)C1O', '.', 'CC(C)O']",['CC(C)O'],"['CO', 'O=CO', 'CC1OCCC(O)C1O', '.', 'CC(C)O']",50.0,23.5,30,13.3,0.1701,127.0
alginate,O=C(O)C1OC(C)C(O)C(O)C1O(C).O=C(O)C1OC(C)C(O)C(O)C1O(C),ipa,CC(C)O,37.37,,,40.0,,,,,"['CO', 'O=CO', 'CC1OCCC(O)C1O', '.', 'CC(C)O']",['CC(C)O'],"['CO', 'O=CO', 'CC1OCCC(O)C1O', '.', 'CC(C)O']",50.0,23.5,30,13.3,0.2411,38.0
alginate,O=C(O)C1OC(C)C(O)C(O)C1O(C).O=C(O)C1OC(C)C(O)C(O)C1O(C),ipa,CC(C)O,37.37,,,50.0,,,,,"['CO', 'O=CO', 'CC1OCCC(O)C1O', '.', 'CC(C)O']",['CC(C)O'],"['CO', 'O=CO', 'CC1OCCC(O)C1O', '.', 'CC(C)O']",50.0,23.5,30,13.3,0.3536,25.0
alginate,O=C(O)C1OC(C)C(O)C(O)C1O(C).O=C(O)C1OC(C)C(O)C(O)C1O(C),ipa,CC(C)O,37.37,,,20.0,,,,,"['CO', 'O=CO', 'CC1OCCC(O)C1O', '.', 'CC(C)O']",['CC(C)O'],"['CO', 'O=CO', 'CC1OCCC(O)C1O', '.', 'CC(C)O']",50.0,23.5,30,13.3,0.085,223.0
alginate,O=C(O)C1OC(C)C(O)C(O)C1O(C).O=C(O)C1OC(C)C(O)C(O)C1O(C),ipa,CC(C)O,37.37,,,10.0,,,,,"['CO', 'O=CO', 'CC1OCCC(O)C1O', '.', 'CC(C)O']",['CC(C)O'],"['CO', 'O=CO', 'CC1OCCC(O)C1O', '.', 'CC(C)O']",50.0,23.5,40,13.3,0.107,355.0
alginate,O=C(O)C1OC(C)C(O)C(O)C1O(C).O=C(O)C1OC(C)C(O)C(O)C1O(C),ipa,CC(C)O,37.37,,,30.0,,,,,"['CO', 'O=CO', 'CC1OCCC(O)C1O', '.', 'CC(C)O']",['CC(C)O'],"['CO', 'O=CO', 'CC1OCCC(O)C1O', '.', 'CC(C)O']",50.0,23.5,30,13.3,0.109,127.0
alginate,O=C(O)C1OC(C)C(O)C(O)C1O(C).O=C(O)C1OC(C)C(O)C(O)C1O(C),ipa,CC(C)O,37.37,,,10.0,,,,,"['CO', 'O=CO', 'CC1OCCC(O)C1O', '.', 'CC(C)O']",['CC(C)O'],"['CO', 'O=CO', 'CC1OCCC(O)C1O', '.', 'CC(C)O']",50.0,23.5,50,13.3,0.121,285.0
alginate,O=C(O)C1OC(C)C(O)C(O)C1O(C).O=C(O)C1OC(C)C(O)C(O)C1O(C),ipa,CC(C)O,37.37,,,30.0,,,,,"['CO', 'O=CO', 'CC1OCCC(O)C1O', '.', 'CC(C)O']",['CC(C)O'],"['CO', 'O=CO', 'CC1OCCC(O)C1O', '.', 'CC(C)O']",50.0,23.5,40,13.3,0.122,56.0
alginate,O=C(O)C1OC(C)C(O)C(O)C1O(C).O=C(O)C1OC(C)C(O)C(O)C1O(C),ipa,CC(C)O,37.37,,,20.0,,,,,"['CO', 'O=CO', 'CC1OCCC(O)C1O', '.', 'CC(C)O']",['CC(C)O'],"['CO', 'O=CO', 'CC1OCCC(O)C1O', '.', 'CC(C)O']",50.0,23.5,40,13.3,0.131,118.0
alginate,O=C(O)C1OC(C)C(O)C(O)C1O(C).O=C(O)C1OC(C)C(O)C(O)C1O(C),ipa,CC(C)O,37.37,,,40.0,,,,,"['CO', 'O=CO', 'CC1OCCC(O)C1O', '.', 'CC(C)O']",['CC(C)O'],"['CO', 'O=CO', 'CC1OCCC(O)C1O', '.', 'CC(C)O']",50.0,23.5,30,13.3,0.145,38.0
alginate,O=C(O)C1OC(C)C(O)C(O)C1O(C).O=C(O)C1OC(C)C(O)C(O)C1O(C),ipa,CC(C)O,37.37,,,20.0,,,,,"['CO', 'O=CO', 'CC1OCCC(O)C1O', '.', 'CC(C)O']",['CC(C)O'],"['CO', 'O=CO', 'CC1OCCC(O)C1O', '.', 'CC(C)O']",50.0,23.5,50,13.3,0.157,93.0
alginate,O=C(O)C1OC(C)C(O)C(O)C1O(C).O=C(O)C1OC(C)C(O)C(O)C1O(C),ipa,CC(C)O,37.37,,,30.0,,,,,"['CO', 'O=CO', 'CC1OCCC(O)C1O', '.', 'CC(C)O']",['CC(C)O'],"['CO', 'O=CO', 'CC1OCCC(O)C1O', '.', 'CC(C)O']",50.0,23.5,50,13.3,0.182,34.0
alginate,O=C(O)C1OC(C)C(O)C(O)C1O(C).O=C(O)C1OC(C)C(O)C(O)C1O(C),ethanol,CCO,37.37,,,10.0,,,,,"['CO', 'O=CO', 'CC1OCCC(O)C1O', '.', 'CCO']",['CCO'],"['CO', 'O=CO', 'CC1OCCC(O)C1O', '.', 'CCO']",50.0,26.5,30,0.06,0.0391,24.0
alginate,O=C(O)C1OC(C)C(O)C(O)C1O(C).O=C(O)C1OC(C)C(O)C(O)C1O(C),ethanol,CCO,37.37,,,10.0,,,,,"['CO', 'O=CO', 'CC1OCCC(O)C1O', '.', 'CCO']",['CCO'],"['CO', 'O=CO', 'CC1OCCC(O)C1O', '.', 'CCO']",50.0,26.5,40,0.06,0.0531,17.0
alginate,O=C(O)C1OC(C)C(O)C(O)C1O(C).O=C(O)C1OC(C)C(O)C(O)C1O(C),ipa,CC(C)O,37.37,,,10.0,,,,,"['CO', 'O=CO', 'CC1OCCC(O)C1O', '.', 'CC(C)O']",['CC(C)O'],"['CO', 'O=CO', 'CC1OCCC(O)C1O', '.', 'CC(C)O']",50.0,23.5,30,0.06,0.0646,678.0
alginate,O=C(O)C1OC(C)C(O)C(O)C1O(C).O=C(O)C1OC(C)C(O)C(O)C1O(C),ethanol,CCO,37.37,,,10.0,,,,,"['CO', 'O=CO', 'CC1OCCC(O)C1O', '.', 'CCO']",['CCO'],"['CO', 'O=CO', 'CC1OCCC(O)C1O', '.', 'CCO']",50.0,26.5,50,0.06,0.0675,13.0
alginate,O=C(O)C1OC(C)C(O)C(O)C1O(C).O=C(O)C1OC(C)C(O)C(O)C1O(C),ethanol,CCO,37.37,,,10.0,,,,,"['CO', 'O=CO', 'CC1OCCC(O)C1O', '.', 'CCO']",['CCO'],"['CO', 'O=CO', 'CC1OCCC(O)C1O', '.', 'CCO']",50.0,26.5,60,0.06,0.0843,8.0
alginate,O=C(O)C1OC(C)C(O)C(O)C1O(C).O=C(O)C1OC(C)C(O)C(O)C1O(C),ipa,CC(C)O,37.37,,,10.0,,,,,"['CO', 'O=CO', 'CC1OCCC(O)C1O', '.', 'CC(C)O']",['CC(C)O'],"['CO', 'O=CO', 'CC1OCCC(O)C1O', '.', 'CC(C)O']",50.0,23.5,50,0.06,0.0849,278.0
alginate,O=C(O)C1OC(C)C(O)C(O)C1O(C).O=C(O)C1OC(C)C(O)C(O)C1O(C),ipa,CC(C)O,37.37,,,10.0,,,,,"['CO', 'O=CO', 'CC1OCCC(O)C1O', '.', 'CC(C)O']",['CC(C)O'],"['CO', 'O=CO', 'CC1OCCC(O)C1O', '.', 'CC(C)O']",50.0,23.5,40,0.06,0.0906,328.0
alginate,O=C(O)C1OC(C)C(O)C(O)C1O(C).O=C(O)C1OC(C)C(O)C(O)C1O(C),ipa,CC(C)O,37.37,,,10.0,,,,,"['CO', 'O=CO', 'CC1OCCC(O)C1O', '.', 'CC(C)O']",['CC(C)O'],"['CO', 'O=CO', 'CC1OCCC(O)C1O', '.', 'CC(C)O']",50.0,23.5,60,0.06,0.145,148.0
chitosan,NC2C(O)C(OC1OC(CO)C(O(C))C(O)C1N)C(CO)OC2(C),ipa,CC(C)O,55.1,,,5.0,,,,,"['CO', 'O', 'CO', 'CC1OCCC(O)C1N', 'NC1COCCC1O', '.', 'CC(C)O']",['CC(C)O'],"['CO', 'O', 'CO', 'CC1OCCC(O)C1N', 'NC1COCCC1O', '.', 'CC(C)O']",40.0,23.5,30,13.3,0.032,422.0
chitosan,NC2C(O)C(OC1OC(CO)C(O(C))C(O)C1N)C(CO)OC2(C),ipa,CC(C)O,55.1,,,10.0,,,,,"['CO', 'O', 'CO', 'CC1OCCC(O)C1N', 'NC1COCCC1O', '.', 'CC(C)O']",['CC(C)O'],"['CO', 'O', 'CO', 'CC1OCCC(O)C1N', 'NC1COCCC1O', '.', 'CC(C)O']",40.0,23.5,30,13.3,0.0478,171.0
chitosan,NC2C(O)C(OC1OC(CO)C(O(C))C(O)C1N)C(CO)OC2(C),ipa,CC(C)O,55.1,,,20.0,,,,,"['CO', 'O', 'CO', 'CC1OCCC(O)C1N', 'NC1COCCC1O', '.', 'CC(C)O']",['CC(C)O'],"['CO', 'O', 'CO', 'CC1OCCC(O)C1N', 'NC1COCCC1O', '.', 'CC(C)O']",40.0,23.5,30,13.3,0.0808,41.322314
chitosan,NC2C(O)C(OC1OC(CO)C(O(C))C(O)C1N)C(CO)OC2(C),ipa,CC(C)O,55.1,,,10.0,,,,,"['CO', 'O', 'CO', 'CC1OCCC(O)C1N', 'NC1COCCC1O', '.', 'CC(C)O']",['CC(C)O'],"['CO', 'O', 'CO', 'CC1OCCC(O)C1N', 'NC1COCCC1O', '.', 'CC(C)O']",40.0,23.5,40,13.3,0.0863,104.8
chitosan,NC2C(O)C(OC1OC(CO)C(O(C))C(O)C1N)C(CO)OC2(C),ipa,CC(C)O,55.1,,,25.0,,,,,"['CO', 'O', 'CO', 'CC1OCCC(O)C1N', 'NC1COCCC1O', '.', 'CC(C)O']",['CC(C)O'],"['CO', 'O', 'CO', 'CC1OCCC(O)C1N', 'NC1COCCC1O', '.', 'CC(C)O']",40.0,23.5,30,13.3,0.1043,24.793388
chitosan,NC2C(O)C(OC1OC(CO)C(O(C))C(O)C1N)C(CO)OC2(C),ipa,CC(C)O,55.1,,,30.0,,,,,"['CO', 'O', 'CO', 'CC1OCCC(O)C1N', 'NC1COCCC1O', '.', 'CC(C)O']",['CC(C)O'],"['CO', 'O', 'CO', 'CC1OCCC(O)C1N', 'NC1COCCC1O', '.', 'CC(C)O']",40.0,23.5,30,13.3,0.1094,24.793388
chitosan,NC2C(O)C(OC1OC(CO)C(O(C))C(O)C1N)C(CO)OC2(C),ipa,CC(C)O,55.1,,,10.0,,,,,"['CO', 'O', 'CO', 'CC1OCCC(O)C1N', 'NC1COCCC1O', '.', 'CC(C)O']",['CC(C)O'],"['CO', 'O', 'CO', 'CC1OCCC(O)C1N', 'NC1COCCC1O', '.', 'CC(C)O']",40.0,23.5,50,13.3,0.141,72.9
chitosan,NC2C(O)C(OC1OC(CO)C(O(C))C(O)C1N)C(CO)OC2(C),ipa,CC(C)O,55.1,,,5.0,,,,,"['CO', 'O', 'CO', 'CC1OCCC(O)C1N', 'NC1COCCC1O', '.', 'CC(C)O']",['CC(C)O'],"['CO', 'O', 'CO', 'CC1OCCC(O)C1N', 'NC1COCCC1O', '.', 'CC(C)O']",40.0,23.5,30,13.3,0.0285,1469.849246
chitosan,NC2C(O)C(OC1OC(CO)C(O(C))C(O)C1N)C(CO)OC2(C),ipa,CC(C)O,55.1,,,15.0,,,,,"['CO', 'O', 'CO', 'CC1OCCC(O)C1N', 'NC1COCCC1O', '.', 'CC(C)O']",['CC(C)O'],"['CO', 'O', 'CO', 'CC1OCCC(O)C1N', 'NC1COCCC1O', '.', 'CC(C)O']",40.0,23.5,30,13.3,0.0537,175.879397
chitosan,NC2C(O)C(OC1OC(CO)C(O(C))C(O)C1N)C(CO)OC2(C),ipa,CC(C)O,55.1,,,20.0,,,,,"['CO', 'O', 'CO', 'CC1OCCC(O)C1N', 'NC1COCCC1O', '.', 'CC(C)O']",['CC(C)O'],"['CO', 'O', 'CO', 'CC1OCCC(O)C1N', 'NC1COCCC1O', '.', 'CC(C)O']",40.0,23.5,30,13.3,0.0732,50.251256
chitosan,NC2C(O)C(OC1OC(CO)C(O(C))C(O)C1N)C(CO)OC2(C),ipa,CC(C)O,55.1,,,5.0,,,,,"['CO', 'O', 'CO', 'CC1OCCC(O)C1N', 'NC1COCCC1O', '.', 'CC(C)O']",['CC(C)O'],"['CO', 'O', 'CO', 'CC1OCCC(O)C1N', 'NC1COCCC1O', '.', 'CC(C)O']",40.0,23.5,30,13.3,0.0466,617.169374
chitosan,NC2C(O)C(OC1OC(CO)C(O(C))C(O)C1N)C(CO)OC2(C),ipa,CC(C)O,55.1,,,10.0,,,,,"['CO', 'O', 'CO', 'CC1OCCC(O)C1N', 'NC1COCCC1O', '.', 'CC(C)O']",['CC(C)O'],"['CO', 'O', 'CO', 'CC1OCCC(O)C1N', 'NC1COCCC1O', '.', 'CC(C)O']",40.0,23.5,30,13.3,0.0731,265.0
chitosan,NC2C(O)C(OC1OC(CO)C(O(C))C(O)C1N)C(CO)OC2(C),ipa,CC(C)O,55.1,,,20.0,,,,,"['CO', 'O', 'CO', 'CC1OCCC(O)C1N', 'NC1COCCC1O', '.', 'CC(C)O']",['CC(C)O'],"['CO', 'O', 'CO', 'CC1OCCC(O)C1N', 'NC1COCCC1O', '.', 'CC(C)O']",40.0,23.5,30,13.3,0.1079,97.447796
chitosan,NC2C(O)C(OC1OC(CO)C(O(C))C(O)C1N)C(CO)OC2(C),ipa,CC(C)O,55.1,,,10.0,,,,,"['CO', 'O', 'CO', 'CC1OCCC(O)C1N', 'NC1COCCC1O', '.', 'CC(C)O']",['CC(C)O'],"['CO', 'O', 'CO', 'CC1OCCC(O)C1N', 'NC1COCCC1O', '.', 'CC(C)O']",40.0,23.5,40,13.3,0.1084,105.0
chitosan,NC2C(O)C(OC1OC(CO)C(O(C))C(O)C1N)C(CO)OC2(C),ipa,CC(C)O,55.1,,,10.0,,,,,"['CO', 'O', 'CO', 'CC1OCCC(O)C1N', 'NC1COCCC1O', '.', 'CC(C)O']",['CC(C)O'],"['CO', 'O', 'CO', 'CC1OCCC(O)C1N', 'NC1COCCC1O', '.', 'CC(C)O']",40.0,23.5,50,13.3,0.1274,73.0
chitosan,NC2C(O)C(OC1OC(CO)C(O(C))C(O)C1N)C(CO)OC2(C),ipa,CC(C)O,55.1,,,10.0,,,,,"['CO', 'O', 'CO', 'CC1OCCC(O)C1N', 'NC1COCCC1O', '.', 'CC(C)O']",['CC(C)O'],"['CO', 'O', 'CO', 'CC1OCCC(O)C1N', 'NC1COCCC1O', '.', 'CC(C)O']",40.0,23.5,60,13.3,0.1659,58.0
chitosan,NC2C(O)C(OC1OC(CO)C(O(C))C(O)C1N)C(CO)OC2(C),ipa,CC(C)O,55.1,,,30.0,,,,,"['CO', 'O', 'CO', 'CC1OCCC(O)C1N', 'NC1COCCC1O', '.', 'CC(C)O']",['CC(C)O'],"['CO', 'O', 'CO', 'CC1OCCC(O)C1N', 'NC1COCCC1O', '.', 'CC(C)O']",40.0,23.5,30,13.3,0.1669,32.482599
alginate,O=C(O)C1OC(C)C(O)C(O)C1O(C).O=C(O)C1OC(C)C(O)C(O)C1O(C),ipa,CC(C)O,37.37,,,10.0,,,,,"['CO', 'O=CO', 'CC1OCCC(O)C1O', '.', 'CC(C)O']",['CC(C)O'],"['CO', 'O=CO', 'CC1OCCC(O)C1O', '.', 'CC(C)O']",1.8,23.5,45,1.0,0.3152,1974.883721
alginate,O=C(O)C1OC(C)C(O)C(O)C1O(C).O=C(O)C1OC(C)C(O)C(O)C1O(C),n-butanol,CCCCO,37.37,,,10.0,,,,,"['CO', 'O=CO', 'CC1OCCC(O)C1O', '.', 'CCCCO']",['CCCCO'],"['CO', 'O=CO', 'CC1OCCC(O)C1O', '.', 'CCCCO']",1.8,23.1,45,1.0,0.4765,859.534884
pva,C(C)C(C)(O),n-butanol,CCCCO,74.0,,,10.0,,,,,"['CCC(C)O', '.', 'CCCCO']",['CCCCO'],"['CCC(C)O', '.', 'CCCCO']",1.8,23.1,45,1.0,0.624,573.023256
ptmsp,C/C(C)=C(C)/[Si](C)(C)C,n-butanol,CCCCO,100.0,,,99.0,,,,,"['CCC', 'CC[Si](C)(C)C', '.', 'CCCCO']",['CCCCO'],"['CCC', 'CC[Si](C)(C)C', '.', 'CCCCO']",20.0,23.1,25,2.7,0.0809,0.01393