Polymer,Polymer_SMILES,Solvent,Solvent_SMILES,Contact_angle,Thickness,Solvent_solubility_parameter,xw_wt_percent,Temperature,Permeate_pressure,J_total_flux,a_separation_factor,Polymer_BRICS,Solvent_BRICS,PS_pair_BRICS,Thickness_um,Solvent_solubility_parameter_Mpa_sqrt,Temp_C,Permeate_pressure_mbar,J_Total_flux_kg_m_2h_1,a_Separation_factor_wo
pdms,[Si](C)(C)(C)O(C),ethanol,CCO,109.0,,,95.0,,,,,"['CO[Si](C)(C)C', '.', 'CCO']",['CCO'],"['CO[Si](C)(C)C', '.', 'CCO']",10.0,26.5,40,3.0,0.468208092,0.138462
pdms,[Si](C)(C)(C)O(C),n-butanol,CCCCO,109.0,,,95.0,,,,,"['CO[Si](C)(C)C', '.', 'CCCCO']",['CCCCO'],"['CO[Si](C)(C)C', '.', 'CCCCO']",10.0,23.1,40,3.0,0.589595376,0.05
pva,C(C)C(C)(O),methanol,CO,74.0,,,15.0,,,,,"['CCC(C)O', '.', 'CO']",['CO'],"['CCC(C)O', '.', 'CO']",3.0,29.6,50,3.0,0.270805067,30.434783
pva,C(C)C(C)(O),methanol,CO,74.0,,,10.0,,,,,"['CCC(C)O', '.', 'CO']",['CO'],"['CCC(C)O', '.', 'CO']",3.0,29.6,50,3.0,0.285797323,101.449275
pva,C(C)C(C)(O),methanol,CO,74.0,,,3.0,,,,,"['CCC(C)O', '.', 'CO']",['CO'],"['CCC(C)O', '.', 'CO']",3.0,29.6,50,3.0,0.290745611,831.884058
pva,C(C)C(C)(O),methanol,CO,74.0,,,5.0,,,,,"['CCC(C)O', '.', 'CO']",['CO'],"['CCC(C)O', '.', 'CO']",3.0,29.6,50,3.0,0.300587959,547.826087
pva,C(C)C(C)(O),methanol,CO,74.0,,,20.0,,,,,"['CCC(C)O', '.', 'CO']",['CO'],"['CCC(C)O', '.', 'CO']",3.0,29.6,70,3.0,0.332481466,20.289855
pva,C(C)C(C)(O),methanol,CO,74.0,,,1.0,,,,,"['CCC(C)O', '.', 'CO']",['CO'],"['CCC(C)O', '.', 'CO']",3.0,29.6,60,3.0,0.419519863,1247.826087
pva,C(C)C(C)(O),methanol,CO,74.0,,,10.0,,,,,"['CCC(C)O', '.', 'CO']",['CO'],"['CCC(C)O', '.', 'CO']",3.0,29.6,60,3.0,0.432726751,111.594203
pva,C(C)C(C)(O),methanol,CO,74.0,,,3.0,,,,,"['CCC(C)O', '.', 'CO']",['CO'],"['CCC(C)O', '.', 'CO']",3.0,29.6,60,3.0,0.43333507,882.608696
pva,C(C)C(C)(O),methanol,CO,74.0,,,15.0,,,,,"['CCC(C)O', '.', 'CO']",['CO'],"['CCC(C)O', '.', 'CO']",3.0,29.6,70,3.0,0.487656633,30.434783
pva,C(C)C(C)(O),methanol,CO,74.0,,,1.0,,,,,"['CCC(C)O', '.', 'CO']",['CO'],"['CCC(C)O', '.', 'CO']",3.0,29.6,70,3.0,0.580966706,1318.84058
pva,C(C)C(C)(O),methanol,CO,74.0,,,5.0,,,,,"['CCC(C)O', '.', 'CO']",['CO'],"['CCC(C)O', '.', 'CO']",3.0,29.6,70,3.0,0.615752926,547.826087
pva,C(C)C(C)(O),methanol,CO,74.0,,,10.0,,,,,"['CCC(C)O', '.', 'CO']",['CO'],"['CCC(C)O', '.', 'CO']",3.0,29.6,70,3.0,0.663587992,111.594203
pdms,[Si](C)(C)(C)O(C),ipa,CC(C)O,108.08219,,,99.0,,,,,"['CO[Si](C)(C)C', '.', 'CC(C)O']",['CC(C)O'],"['CO[Si](C)(C)C', '.', 'CC(C)O']",25.0,23.5,30,1.0,0.212258065,0.055319
pdms,[Si](C)(C)(C)O(C),ipa,CC(C)O,108.08219,,,96.0,,,,,"['CO[Si](C)(C)C', '.', 'CC(C)O']",['CC(C)O'],"['CO[Si](C)(C)C', '.', 'CC(C)O']",25.0,23.5,30,1.0,0.30375,0.077143
pdms,[Si](C)(C)(C)O(C),ipa,CC(C)O,108.08219,,,96.0,,,,,"['CO[Si](C)(C)C', '.', 'CC(C)O']",['CC(C)O'],"['CO[Si](C)(C)C', '.', 'CC(C)O']",25.0,23.5,30,1.0,0.307096774,0.076471
pdms,[Si](C)(C)(C)O(C),ipa,CC(C)O,108.08219,,,96.0,,,,,"['CO[Si](C)(C)C', '.', 'CC(C)O']",['CC(C)O'],"['CO[Si](C)(C)C', '.', 'CC(C)O']",25.0,23.5,40,1.0,0.46125,0.082653
pdms,[Si](C)(C)(C)O(C),ipa,CC(C)O,108.08219,,,96.0,,,,,"['CO[Si](C)(C)C', '.', 'CC(C)O']",['CC(C)O'],"['CO[Si](C)(C)C', '.', 'CC(C)O']",25.0,23.5,50,1.0,0.63,0.092571
pdms,[Si](C)(C)(C)O(C),ipa,CC(C)O,108.08219,,,96.0,,,,,"['CO[Si](C)(C)C', '.', 'CC(C)O']",['CC(C)O'],"['CO[Si](C)(C)C', '.', 'CC(C)O']",25.0,23.5,60,1.0,0.793125,0.100621
ppms,C[Si](C)(O(C))c1ccccc1,methanol,CO,121.2,,,95.0,,,,,"['CO[Si](C)(C)c1ccccc1', '.', 'CO']",['CO'],"['CO[Si](C)(C)c1ccccc1', '.', 'CO']",1.5,29.6,20,10.0,0.537142857,0.325455
ppms,C[Si](C)(O(C))c1ccccc1,ethanol,CCO,121.2,,,95.0,,,,,"['CO[Si](C)(C)c1ccccc1', '.', 'CCO']",['CCO'],"['CO[Si](C)(C)c1ccccc1', '.', 'CCO']",1.5,26.5,20,10.0,0.578285714,0.1432
pdms,[Si](C)(C)(C)O(C),methanol,CO,108.08219,,,95.0,,,,,"['CO[Si](C)(C)C', '.', 'CO']",['CO'],"['CO[Si](C)(C)C', '.', 'CO']",1.5,29.6,30,10.0,0.660571429,0.137692
pdms,[Si](C)(C)(C)O(C),ethanol,CCO,108.08219,,,95.0,,,,,"['CO[Si](C)(C)C', '.', 'CCO']",['CCO'],"['CO[Si](C)(C)C', '.', 'CCO']",1.5,26.5,30,10.0,0.660571429,0.111875
ppms,C[Si](C)(O(C))c1ccccc1,methanol,CO,121.2,,,95.0,,,,,"['CO[Si](C)(C)c1ccccc1', '.', 'CO']",['CO'],"['CO[Si](C)(C)c1ccccc1', '.', 'CO']",1.5,29.6,30,10.0,0.797714286,0.238667
pdms,[Si](C)(C)(C)O(C),methanol,CO,108.08219,,,95.0,,,,,"['CO[Si](C)(C)C', '.', 'CO']",['CO'],"['CO[Si](C)(C)C', '.', 'CO']",1.5,29.6,40,10.0,1.140571429,0.1432
pdms,[Si](C)(C)(C)O(C),methanol,CO,108.08219,,,95.0,,,,,"['CO[Si](C)(C)C', '.', 'CO']",['CO'],"['CO[Si](C)(C)C', '.', 'CO']",1.5,29.6,45,10.0,1.346285714,0.1432
ppms,C[Si](C)(O(C))c1ccccc1,methanol,CO,121.2,,,95.0,,,,,"['CO[Si](C)(C)c1ccccc1', '.', 'CO']",['CO'],"['CO[Si](C)(C)c1ccccc1', '.', 'CO']",1.5,29.6,40,10.0,1.36,0.210588
pdms,[Si](C)(C)(C)O(C),ethanol,CCO,108.08219,,,95.0,,,,,"['CO[Si](C)(C)C', '.', 'CCO']",['CCO'],"['CO[Si](C)(C)C', '.', 'CCO']",1.5,26.5,45,10.0,1.387428571,0.108485
ppms,C[Si](C)(O(C))c1ccccc1,ethanol,CCO,121.2,,,95.0,,,,,"['CO[Si](C)(C)c1ccccc1', '.', 'CCO']",['CCO'],"['CO[Si](C)(C)c1ccccc1', '.', 'CCO']",1.5,26.5,40,10.0,1.428571429,0.170476
ppms,C[Si](C)(O(C))c1ccccc1,methanol,CO,121.2,,,95.0,,,,,"['CO[Si](C)(C)c1ccccc1', '.', 'CO']",['CO'],"['CO[Si](C)(C)c1ccccc1', '.', 'CO']",1.5,29.6,45,10.0,1.730285714,0.198889
ppms,C[Si](C)(O(C))c1ccccc1,ethanol,CCO,121.2,,,95.0,,,,,"['CO[Si](C)(C)c1ccccc1', '.', 'CCO']",['CCO'],"['CO[Si](C)(C)c1ccccc1', '.', 'CCO']",1.5,26.5,45,10.0,1.785142857,0.162727
pdms,[Si](C)(C)(C)O(C),methanol,CO,108.08219,,,99.0,,,,,"['CO[Si](C)(C)C', '.', 'CO']",['CO'],"['CO[Si](C)(C)C', '.', 'CO']",8.0,29.6,35,9.0,0.497382199,0.308824
pdms,[Si](C)(C)(C)O(C),methanol,CO,108.08219,,,97.0,,,,,"['CO[Si](C)(C)C', '.', 'CO']",['CO'],"['CO[Si](C)(C)C', '.', 'CO']",8.0,29.6,30,9.0,0.54973822,0.538462
pdms,[Si](C)(C)(C)O(C),methanol,CO,108.08219,,,99.7,,,,,"['CO[Si](C)(C)C', '.', 'CO']",['CO'],"['CO[Si](C)(C)C', '.', 'CO']",8.0,29.6,35,9.0,0.54973822,0.135484
pdms,[Si](C)(C)(C)O(C),methanol,CO,108.08219,,,99.7,,,,,"['CO[Si](C)(C)C', '.', 'CO']",['CO'],"['CO[Si](C)(C)C', '.', 'CO']",8.0,29.6,40,9.0,0.641361257,0.138158
pdms,[Si](C)(C)(C)O(C),methanol,CO,108.08219,,,99.0,,,,,"['CO[Si](C)(C)C', '.', 'CO']",['CO'],"['CO[Si](C)(C)C', '.', 'CO']",8.0,29.6,40,9.0,0.654450262,0.323077
pdms,[Si](C)(C)(C)O(C),methanol,CO,108.08219,,,97.0,,,,,"['CO[Si](C)(C)C', '.', 'CO']",['CO'],"['CO[Si](C)(C)C', '.', 'CO']",8.0,29.6,35,9.0,0.732984293,0.567568
pdms,[Si](C)(C)(C)O(C),methanol,CO,108.08219,,,97.0,,,,,"['CO[Si](C)(C)C', '.', 'CO']",['CO'],"['CO[Si](C)(C)C', '.', 'CO']",8.0,29.6,40,9.0,0.876963351,0.567568
pdms,[Si](C)(C)(C)O(C),methanol,CO,108.08219,,,99.0,,,,,"['CO[Si](C)(C)C', '.', 'CO']",['CO'],"['CO[Si](C)(C)C', '.', 'CO']",8.0,29.6,45,9.0,0.994764398,0.344262
pdms,[Si](C)(C)(C)O(C),methanol,CO,108.08219,,,99.7,,,,,"['CO[Si](C)(C)C', '.', 'CO']",['CO'],"['CO[Si](C)(C)C', '.', 'CO']",8.0,29.6,45,9.0,0.994764398,0.146853
pdms,[Si](C)(C)(C)O(C),methanol,CO,108.08219,,,97.0,,,,,"['CO[Si](C)(C)C', '.', 'CO']",['CO'],"['CO[Si](C)(C)C', '.', 'CO']",8.0,29.6,45,9.0,1.544502618,0.6
pdms,[Si](C)(C)(C)O(C),methanol,CO,108.08219,,,99.7,,,,,"['CO[Si](C)(C)C', '.', 'CO']",['CO'],"['CO[Si](C)(C)C', '.', 'CO']",8.0,29.6,50,9.0,1.64921466,0.15
pdms,[Si](C)(C)(C)O(C),methanol,CO,108.08219,,,99.0,,,,,"['CO[Si](C)(C)C', '.', 'CO']",['CO'],"['CO[Si](C)(C)C', '.', 'CO']",8.0,29.6,50,9.0,1.727748691,0.355932
pdms,[Si](C)(C)(C)O(C),methanol,CO,108.08219,,,97.0,,,,,"['CO[Si](C)(C)C', '.', 'CO']",['CO'],"['CO[Si](C)(C)C', '.', 'CO']",8.0,29.6,50,9.0,2.094240838,0.636364
pdms,[Si](C)(C)(C)O(C),methanol,CO,108.08219,,,99.7,,,,,"['CO[Si](C)(C)C', '.', 'CO']",['CO'],"['CO[Si](C)(C)C', '.', 'CO']",8.0,29.6,30,9.0,0.368421053,0.130263
pdms,[Si](C)(C)(C)O(C),methanol,CO,108.08219,,,99.0,,,,,"['CO[Si](C)(C)C', '.', 'CO']",['CO'],"['CO[Si](C)(C)C', '.', 'CO']",8.0,29.6,30,9.0,0.389473684,0.3
pdms,[Si](C)(C)(C)O(C),ethanol,CCO,108.08219,,,99.7,,,,,"['CO[Si](C)(C)C', '.', 'CCO']",['CCO'],"['CO[Si](C)(C)C', '.', 'CCO']",8.0,26.5,30,9.0,0.515789474,0.341379
pdms,[Si](C)(C)(C)O(C),methanol,CO,108.08219,,,97.0,,,,,"['CO[Si](C)(C)C', '.', 'CO']",['CO'],"['CO[Si](C)(C)C', '.', 'CO']",8.0,29.6,30,9.0,0.547368421,0.55
pdms,[Si](C)(C)(C)O(C),ethanol,CCO,108.08219,,,99.0,,,,,"['CO[Si](C)(C)C', '.', 'CCO']",['CCO'],"['CO[Si](C)(C)C', '.', 'CCO']",8.0,26.5,30,9.0,0.6,0.61875
pdms,[Si](C)(C)(C)O(C),ethanol,CCO,108.08219,,,97.0,,,,,"['CO[Si](C)(C)C', '.', 'CCO']",['CCO'],"['CO[Si](C)(C)C', '.', 'CCO']",8.0,26.5,30,9.0,0.905263158,0.9
chitosan,NC2C(O)C(OC1OC(CO)C(O(C))C(O)C1N)C(CO)OC2(C),methanol,CO,55.1,,,1.9,,,,,"['CO', 'O', 'CO', 'CC1OCCC(O)C1N', 'NC1COCCC1O', '.', 'CO']",['CO'],"['CO', 'O', 'CO', 'CC1OCCC(O)C1N', 'NC1COCCC1O', '.', 'CO']",26.2,29.6,25,2.5,0.164018692,3.047847
chitosan,NC2C(O)C(OC1OC(CO)C(O(C))C(O)C1N)C(CO)OC2(C),methanol,CO,55.1,,,5.0,,,,,"['CO', 'O', 'CO', 'CC1OCCC(O)C1N', 'NC1COCCC1O', '.', 'CO']",['CO'],"['CO', 'O', 'CO', 'CC1OCCC(O)C1N', 'NC1COCCC1O', '.', 'CO']",26.2,29.6,25,2.5,0.189252336,3.181818
chitosan,NC2C(O)C(OC1OC(CO)C(O(C))C(O)C1N)C(CO)OC2(C),methanol,CO,55.1,,,9.0,,,,,"['CO', 'O', 'CO', 'CC1OCCC(O)C1N', 'NC1COCCC1O', '.', 'CO']",['CO'],"['CO', 'O', 'CO', 'CC1OCCC(O)C1N', 'NC1COCCC1O', '.', 'CO']",26.2,29.6,25,2.5,0.210280374,3.449761
chitosan,NC2C(O)C(OC1OC(CO)C(O(C))C(O)C1N)C(CO)OC2(C),methanol,CO,55.1,,,16.1,,,,,"['CO', 'O', 'CO', 'CC1OCCC(O)C1N', 'NC1COCCC1O', '.', 'CO']",['CO'],"['CO', 'O', 'CO', 'CC1OCCC(O)C1N', 'NC1COCCC1O', '.', 'CO']",26.2,29.6,25,2.5,0.239719626,4.555024
chitosan,NC2C(O)C(OC1OC(CO)C(O(C))C(O)C1N)C(CO)OC2(C),methanol,CO,55.1,,,5.0,,,,,"['CO', 'O', 'CO', 'CC1OCCC(O)C1N', 'NC1COCCC1O', '.', 'CO']",['CO'],"['CO', 'O', 'CO', 'CC1OCCC(O)C1N', 'NC1COCCC1O', '.', 'CO']",26.2,29.6,35,2.5,0.269158879,3.583732
chitosan,NC2C(O)C(OC1OC(CO)C(O(C))C(O)C1N)C(CO)OC2(C),methanol,CO,55.1,,,1.9,,,,,"['CO', 'O', 'CO', 'CC1OCCC(O)C1N', 'NC1COCCC1O', '.', 'CO']",['CO'],"['CO', 'O', 'CO', 'CC1OCCC(O)C1N', 'NC1COCCC1O', '.', 'CO']",26.2,29.6,35,2.5,0.285981308,3.215311
chitosan,NC2C(O)C(OC1OC(CO)C(O(C))C(O)C1N)C(CO)OC2(C),methanol,CO,55.1,,,16.1,,,,,"['CO', 'O', 'CO', 'CC1OCCC(O)C1N', 'NC1COCCC1O', '.', 'CO']",['CO'],"['CO', 'O', 'CO', 'CC1OCCC(O)C1N', 'NC1COCCC1O', '.', 'CO']",26.2,29.6,35,2.5,0.361682243,4.923445
chitosan,NC2C(O)C(OC1OC(CO)C(O(C))C(O)C1N)C(CO)OC2(C),methanol,CO,55.1,,,26.8,,,,,"['CO', 'O', 'CO', 'CC1OCCC(O)C1N', 'NC1COCCC1O', '.', 'CO']",['CO'],"['CO', 'O', 'CO', 'CC1OCCC(O)C1N', 'NC1COCCC1O', '.', 'CO']",26.2,29.6,25,2.5,0.361682243,3.985646
chitosan,NC2C(O)C(OC1OC(CO)C(O(C))C(O)C1N)C(CO)OC2(C),methanol,CO,55.1,,,5.0,,,,,"['CO', 'O', 'CO', 'CC1OCCC(O)C1N', 'NC1COCCC1O', '.', 'CO']",['CO'],"['CO', 'O', 'CO', 'CC1OCCC(O)C1N', 'NC1COCCC1O', '.', 'CO']",26.2,29.6,45,2.5,0.38271028,3.751196
chitosan,NC2C(O)C(OC1OC(CO)C(O(C))C(O)C1N)C(CO)OC2(C),methanol,CO,55.1,,,1.9,,,,,"['CO', 'O', 'CO', 'CC1OCCC(O)C1N', 'NC1COCCC1O', '.', 'CO']",['CO'],"['CO', 'O', 'CO', 'CC1OCCC(O)C1N', 'NC1COCCC1O', '.', 'CO']",26.2,29.6,45,2.5,0.386915888,3.248804
chitosan,NC2C(O)C(OC1OC(CO)C(O(C))C(O)C1N)C(CO)OC2(C),methanol,CO,55.1,,,9.0,,,,,"['CO', 'O', 'CO', 'CC1OCCC(O)C1N', 'NC1COCCC1O', '.', 'CO']",['CO'],"['CO', 'O', 'CO', 'CC1OCCC(O)C1N', 'NC1COCCC1O', '.', 'CO']",26.2,29.6,45,2.5,0.420560748,4.287081
chitosan,NC2C(O)C(OC1OC(CO)C(O(C))C(O)C1N)C(CO)OC2(C),methanol,CO,55.1,,,16.1,,,,,"['CO', 'O', 'CO', 'CC1OCCC(O)C1N', 'NC1COCCC1O', '.', 'CO']",['CO'],"['CO', 'O', 'CO', 'CC1OCCC(O)C1N', 'NC1COCCC1O', '.', 'CO']",26.2,29.6,45,2.5,0.479439252,5.291866
chitosan,NC2C(O)C(OC1OC(CO)C(O(C))C(O)C1N)C(CO)OC2(C),methanol,CO,55.1,,,1.9,,,,,"['CO', 'O', 'CO', 'CC1OCCC(O)C1N', 'NC1COCCC1O', '.', 'CO']",['CO'],"['CO', 'O', 'CO', 'CC1OCCC(O)C1N', 'NC1COCCC1O', '.', 'CO']",26.2,29.6,55,2.5,0.48364486,3.483254
chitosan,NC2C(O)C(OC1OC(CO)C(O(C))C(O)C1N)C(CO)OC2(C),methanol,CO,55.1,,,26.8,,,,,"['CO', 'O', 'CO', 'CC1OCCC(O)C1N', 'NC1COCCC1O', '.', 'CO']",['CO'],"['CO', 'O', 'CO', 'CC1OCCC(O)C1N', 'NC1COCCC1O', '.', 'CO']",26.2,29.6,35,2.5,0.538317757,4.38756
chitosan,NC2C(O)C(OC1OC(CO)C(O(C))C(O)C1N)C(CO)OC2(C),methanol,CO,55.1,,,5.0,,,,,"['CO', 'O', 'CO', 'CC1OCCC(O)C1N', 'NC1COCCC1O', '.', 'CO']",['CO'],"['CO', 'O', 'CO', 'CC1OCCC(O)C1N', 'NC1COCCC1O', '.', 'CO']",26.2,29.6,55,2.5,0.550934579,4.688995
chitosan,NC2C(O)C(OC1OC(CO)C(O(C))C(O)C1N)C(CO)OC2(C),methanol,CO,55.1,,,9.0,,,,,"['CO', 'O', 'CO', 'CC1OCCC(O)C1N', 'NC1COCCC1O', '.', 'CO']",['CO'],"['CO', 'O', 'CO', 'CC1OCCC(O)C1N', 'NC1COCCC1O', '.', 'CO']",26.2,29.6,55,2.5,0.597196262,5.191388
chitosan,NC2C(O)C(OC1OC(CO)C(O(C))C(O)C1N)C(CO)OC2(C),methanol,CO,55.1,,,16.1,,,,,"['CO', 'O', 'CO', 'CC1OCCC(O)C1N', 'NC1COCCC1O', '.', 'CO']",['CO'],"['CO', 'O', 'CO', 'CC1OCCC(O)C1N', 'NC1COCCC1O', '.', 'CO']",26.2,29.6,55,2.5,0.622429907,5.894737
chitosan,NC2C(O)C(OC1OC(CO)C(O(C))C(O)C1N)C(CO)OC2(C),methanol,CO,55.1,,,26.8,,,,,"['CO', 'O', 'CO', 'CC1OCCC(O)C1N', 'NC1COCCC1O', '.', 'CO']",['CO'],"['CO', 'O', 'CO', 'CC1OCCC(O)C1N', 'NC1COCCC1O', '.', 'CO']",26.2,29.6,45,2.5,0.668691589,4.856459
chitosan,NC2C(O)C(OC1OC(CO)C(O(C))C(O)C1N)C(CO)OC2(C),methanol,CO,55.1,,,26.8,,,,,"['CO', 'O', 'CO', 'CC1OCCC(O)C1N', 'NC1COCCC1O', '.', 'CO']",['CO'],"['CO', 'O', 'CO', 'CC1OCCC(O)C1N', 'NC1COCCC1O', '.', 'CO']",26.2,29.6,55,2.5,0.845327103,5.69378
chitosan,NC2C(O)C(OC1OC(CO)C(O(C))C(O)C1N)C(CO)OC2(C),methanol,CO,55.1,,,5.45,,,,,"['CO', 'O', 'CO', 'CC1OCCC(O)C1N', 'NC1COCCC1O', '.', 'CO']",['CO'],"['CO', 'O', 'CO', 'CC1OCCC(O)C1N', 'NC1COCCC1O', '.', 'CO']",28.4,29.6,45,2.5,0.21752988,5.646396
chitosan,NC2C(O)C(OC1OC(CO)C(O(C))C(O)C1N)C(CO)OC2(C),methanol,CO,55.1,,,1.99,,,,,"['CO', 'O', 'CO', 'CC1OCCC(O)C1N', 'NC1COCCC1O', '.', 'CO']",['CO'],"['CO', 'O', 'CO', 'CC1OCCC(O)C1N', 'NC1COCCC1O', '.', 'CO']",28.4,29.6,45,2.5,0.429482072,3.276708
chitosan,NC2C(O)C(OC1OC(CO)C(O(C))C(O)C1N)C(CO)OC2(C),methanol,CO,55.1,,,1.2,,,,,"['CO', 'O', 'CO', 'CC1OCCC(O)C1N', 'NC1COCCC1O', '.', 'CO']",['CO'],"['CO', 'O', 'CO', 'CC1OCCC(O)C1N', 'NC1COCCC1O', '.', 'CO']",28.4,29.6,45,2.5,0.647011952,3.523793
chitosan,NC2C(O)C(OC1OC(CO)C(O(C))C(O)C1N)C(CO)OC2(C),methanol,CO,55.1,,,21.21,,,,,"['CO', 'O', 'CO', 'CC1OCCC(O)C1N', 'NC1COCCC1O', '.', 'CO']",['CO'],"['CO', 'O', 'CO', 'CC1OCCC(O)C1N', 'NC1COCCC1O', '.', 'CO']",28.4,29.6,45,2.5,0.842231076,3.78723
chitosan,NC2C(O)C(OC1OC(CO)C(O(C))C(O)C1N)C(CO)OC2(C),methanol,CO,55.1,,,29.96,,,,,"['CO', 'O', 'CO', 'CC1OCCC(O)C1N', 'NC1COCCC1O', '.', 'CO']",['CO'],"['CO', 'O', 'CO', 'CC1OCCC(O)C1N', 'NC1COCCC1O', '.', 'CO']",28.4,29.6,45,2.5,1.188047809,3.739064
alginate,O=C(O)C1OC(C)C(O)C(O)C1O(C).O=C(O)C1OC(C)C(O)C(O)C1O(C),methanol,CO,36.0,,,10.0,,,,,"['CO', 'O=CO', 'CC1OCCC(O)C1O', '.', 'CO']",['CO'],"['CO', 'O=CO', 'CC1OCCC(O)C1O', '.', 'CO']",0.19,29.6,77,3.0,1.81,653.0
pva,C(C)C(C)(O),ethylene_glycol,OCCO,74.0,,,10.0,,,,,"['CCC(C)O', '.', 'OCCO']",['OCCO'],"['CCC(C)O', '.', 'OCCO']",22.0,32.9,25,8.0,0.0316,419.354839
pva,C(C)C(C)(O),ethylene_glycol,OCCO,74.0,,,10.0,,,,,"['CCC(C)O', '.', 'OCCO']",['OCCO'],"['CCC(C)O', '.', 'OCCO']",10.0,32.9,60,6.7,0.294736842,1687.5
pva,C(C)C(C)(O),ethylene_glycol,OCCO,74.0,,,10.0,,,,,"['CCC(C)O', '.', 'OCCO']",['OCCO'],"['CCC(C)O', '.', 'OCCO']",10.0,32.9,60,6.7,0.325581395,1675.637394
pva,C(C)C(C)(O),ethylene_glycol,OCCO,74.0,,,10.0,,,,,"['CCC(C)O', '.', 'OCCO']",['OCCO'],"['CCC(C)O', '.', 'OCCO']",10.0,32.9,75,6.7,1.046511628,604.815864
pva,C(C)C(C)(O),ethylene_glycol,OCCO,74.0,,,10.0,,,,,"['CCC(C)O', '.', 'OCCO']",['OCCO'],"['CCC(C)O', '.', 'OCCO']",10.0,32.9,70,6.7,1.136842105,1000.0
pva,C(C)C(C)(O),ethylene_glycol,OCCO,74.0,,,20.0,,,,,"['CCC(C)O', '.', 'OCCO']",['OCCO'],"['CCC(C)O', '.', 'OCCO']",10.0,32.9,60,6.7,1.186046512,2488.668555
pva,C(C)C(C)(O),ethylene_glycol,OCCO,74.0,,,10.0,,,,,"['CCC(C)O', '.', 'OCCO']",['OCCO'],"['CCC(C)O', '.', 'OCCO']",10.0,32.9,80,6.7,1.372093023,297.450425
pva,C(C)C(C)(O),ethylene_glycol,OCCO,74.0,,,10.0,,,,,"['CCC(C)O', '.', 'OCCO']",['OCCO'],"['CCC(C)O', '.', 'OCCO']",10.0,32.9,80,6.7,1.389473684,296.875
pva,C(C)C(C)(O),ethylene_glycol,OCCO,74.0,,,30.0,,,,,"['CCC(C)O', '.', 'OCCO']",['OCCO'],"['CCC(C)O', '.', 'OCCO']",10.0,32.9,60,6.7,2.273684211,1390.625
pva,C(C)C(C)(O),ethylene_glycol,OCCO,74.0,,,30.0,,,,,"['CCC(C)O', '.', 'OCCO']",['OCCO'],"['CCC(C)O', '.', 'OCCO']",10.0,32.9,60,6.7,2.302325581,1388.101983
pva,C(C)C(C)(O),ethylene_glycol,OCCO,74.0,,,20.0,,,,,"['CCC(C)O', '.', 'OCCO']",['OCCO'],"['CCC(C)O', '.', 'OCCO']",10.0,32.9,70,6.7,2.488372093,1477.33711
pva,C(C)C(C)(O),ethylene_glycol,OCCO,74.0,,,20.0,,,,,"['CCC(C)O', '.', 'OCCO']",['OCCO'],"['CCC(C)O', '.', 'OCCO']",10.0,32.9,70,6.7,2.526315789,1484.375
pva,C(C)C(C)(O),ethylene_glycol,OCCO,74.0,,,20.0,,,,,"['CCC(C)O', '.', 'OCCO']",['OCCO'],"['CCC(C)O', '.', 'OCCO']",10.0,32.9,75,6.7,2.652631579,1218.75
pva,C(C)C(C)(O),ethylene_glycol,OCCO,74.0,,,20.0,,,,,"['CCC(C)O', '.', 'OCCO']",['OCCO'],"['CCC(C)O', '.', 'OCCO']",10.0,32.9,80,6.7,2.744186047,892.351275
pva,C(C)C(C)(O),ethylene_glycol,OCCO,74.0,,,20.0,,,,,"['CCC(C)O', '.', 'OCCO']",['OCCO'],"['CCC(C)O', '.', 'OCCO']",10.0,32.9,80,6.7,2.821052632,906.25
pva,C(C)C(C)(O),ethylene_glycol,OCCO,74.0,,,30.0,,,,,"['CCC(C)O', '.', 'OCCO']",['OCCO'],"['CCC(C)O', '.', 'OCCO']",10.0,32.9,70,6.7,3.705263158,796.875
pva,C(C)C(C)(O),ethylene_glycol,OCCO,74.0,,,30.0,,,,,"['CCC(C)O', '.', 'OCCO']",['OCCO'],"['CCC(C)O', '.', 'OCCO']",10.0,32.9,70,6.7,3.720930233,793.201133
pva,C(C)C(C)(O),ethylene_glycol,OCCO,74.0,,,40.0,,,,,"['CCC(C)O', '.', 'OCCO']",['OCCO'],"['CCC(C)O', '.', 'OCCO']",10.0,32.9,60,6.7,3.906976744,1001.416431
pva,C(C)C(C)(O),ethylene_glycol,OCCO,74.0,,,40.0,,,,,"['CCC(C)O', '.', 'OCCO']",['OCCO'],"['CCC(C)O', '.', 'OCCO']",10.0,32.9,60,6.7,3.915789474,1015.625
pva,C(C)C(C)(O),ethylene_glycol,OCCO,74.0,,,30.0,,,,,"['CCC(C)O', '.', 'OCCO']",['OCCO'],"['CCC(C)O', '.', 'OCCO']",10.0,32.9,75,6.7,4.0,390.625
pva,C(C)C(C)(O),ethylene_glycol,OCCO,74.0,,,30.0,,,,,"['CCC(C)O', '.', 'OCCO']",['OCCO'],"['CCC(C)O', '.', 'OCCO']",10.0,32.9,75,6.7,4.023255814,386.685552
pva,C(C)C(C)(O),ethylene_glycol,OCCO,74.0,,,30.0,,,,,"['CCC(C)O', '.', 'OCCO']",['OCCO'],"['CCC(C)O', '.', 'OCCO']",10.0,32.9,80,6.7,4.505263158,125.0
pva,C(C)C(C)(O),ethylene_glycol,OCCO,74.0,,,30.0,,,,,"['CCC(C)O', '.', 'OCCO']",['OCCO'],"['CCC(C)O', '.', 'OCCO']",10.0,32.9,80,6.7,4.511627907,128.895184
pva,C(C)C(C)(O),ethylene_glycol,OCCO,74.0,,,40.0,,,,,"['CCC(C)O', '.', 'OCCO']",['OCCO'],"['CCC(C)O', '.', 'OCCO']",10.0,32.9,70,6.7,5.209302326,703.966006
pva,C(C)C(C)(O),ethylene_glycol,OCCO,74.0,,,40.0,,,,,"['CCC(C)O', '.', 'OCCO']",['OCCO'],"['CCC(C)O', '.', 'OCCO']",10.0,32.9,75,6.7,5.906976744,198.300283
pva,C(C)C(C)(O),ethylene_glycol,OCCO,74.0,,,40.0,,,,,"['CCC(C)O', '.', 'OCCO']",['OCCO'],"['CCC(C)O', '.', 'OCCO']",10.0,32.9,75,6.7,5.936842105,203.125
pva,C(C)C(C)(O),ethylene_glycol,OCCO,74.0,,,40.0,,,,,"['CCC(C)O', '.', 'OCCO']",['OCCO'],"['CCC(C)O', '.', 'OCCO']",10.0,32.9,80,6.7,6.905263158,62.5
pva,C(C)C(C)(O),ethylene_glycol,OCCO,74.0,,,40.0,,,,,"['CCC(C)O', '.', 'OCCO']",['OCCO'],"['CCC(C)O', '.', 'OCCO']",10.0,32.9,80,6.7,6.906976744,69.405099
pva,C(C)C(C)(O),ethylene_glycol,OCCO,50.22,,,20.0,,,,,"['CCC(C)O', '.', 'OCCO']",['OCCO'],"['CCC(C)O', '.', 'OCCO']",15.0,32.9,50,6.7,0.071137026,1247.213949
pva,C(C)C(C)(O),ethylene_glycol,OCCO,50.22,,,20.0,,,,,"['CCC(C)O', '.', 'OCCO']",['OCCO'],"['CCC(C)O', '.', 'OCCO']",15.0,32.9,60,6.7,0.131778426,1070.3364
pva,C(C)C(C)(O),ethylene_glycol,OCCO,50.22,,,10.0,,,,,"['CCC(C)O', '.', 'OCCO']",['OCCO'],"['CCC(C)O', '.', 'OCCO']",15.0,32.9,70,6.7,0.308510638,841.121495
pva,C(C)C(C)(O),ethylene_glycol,OCCO,50.22,,,20.0,,,,,"['CCC(C)O', '.', 'OCCO']",['OCCO'],"['CCC(C)O', '.', 'OCCO']",15.0,32.9,80,6.7,0.35451895,600.617229
pva,C(C)C(C)(O),ethylene_glycol,OCCO,50.22,,,20.0,,,,,"['CCC(C)O', '.', 'OCCO']",['OCCO'],"['CCC(C)O', '.', 'OCCO']",15.0,32.9,70,6.7,0.414893617,925.233645
pva,C(C)C(C)(O),ethylene_glycol,OCCO,50.22,,,40.0,,,,,"['CCC(C)O', '.', 'OCCO']",['OCCO'],"['CCC(C)O', '.', 'OCCO']",15.0,32.9,70,6.7,0.670212766,2551.401869