Polymer,Polymer_SMILES,Solvent,Solvent_SMILES,Contact_angle,Thickness,Solvent_solubility_parameter,xw_wt_percent,Temperature,Permeate_pressure,J_total_flux,a_separation_factor,Polymer_BRICS,Solvent_BRICS,PS_pair_BRICS,Thickness_um,Solvent_solubility_parameter_Mpa_sqrt,Temp_C,Permeate_pressure_mbar,J_Total_flux_kg_m_2h_1,a_Separation_factor_wo
ptmsp,C/C(C)=C(C)/[Si](C)(C)C,n-butanol,CCCCO,100.0,,,98.5,,,,,"['CCC', 'CC[Si](C)(C)C', '.', 'CCCCO']",['CCCCO'],"['CCC', 'CC[Si](C)(C)C', '.', 'CCCCO']",20.0,23.1,25,2.7,0.0879,0.013592
ptmsp,C/C(C)=C(C)/[Si](C)(C)C,n-butanol,CCCCO,100.0,,,98.0,,,,,"['CCC', 'CC[Si](C)(C)C', '.', 'CCCCO']",['CCCCO'],"['CCC', 'CC[Si](C)(C)C', '.', 'CCCCO']",20.0,23.1,25,2.7,0.102,0.012613
ptmsp,C/C(C)=C(C)/[Si](C)(C)C,n-butanol,CCCCO,100.0,,,97.5,,,,,"['CCC', 'CC[Si](C)(C)C', '.', 'CCCCO']",['CCCCO'],"['CCC', 'CC[Si](C)(C)C', '.', 'CCCCO']",20.0,23.1,25,2.7,0.1329,0.012174
ptmsp,C/C(C)=C(C)/[Si](C)(C)C,n-butanol,CCCCO,100.0,,,96.5,,,,,"['CCC', 'CC[Si](C)(C)C', '.', 'CCCCO']",['CCCCO'],"['CCC', 'CC[Si](C)(C)C', '.', 'CCCCO']",20.0,23.1,25,2.7,0.2003,0.012227
ptmsp,C/C(C)=C(C)/[Si](C)(C)C,n-butanol,CCCCO,100.0,,,96.0,,,,,"['CCC', 'CC[Si](C)(C)C', '.', 'CCCCO']",['CCCCO'],"['CCC', 'CC[Si](C)(C)C', '.', 'CCCCO']",20.0,23.1,25,2.7,0.2466,0.012227
ptmsp,C/C(C)=C(C)/[Si](C)(C)C,n-butanol,CCCCO,100.0,,,95.5,,,,,"['CCC', 'CC[Si](C)(C)C', '.', 'CCCCO']",['CCCCO'],"['CCC', 'CC[Si](C)(C)C', '.', 'CCCCO']",20.0,23.1,25,2.7,0.2972,0.012069
ptmsp,C/C(C)=C(C)/[Si](C)(C)C,n-butanol,CCCCO,100.0,,,94.0,,,,,"['CCC', 'CC[Si](C)(C)C', '.', 'CCCCO']",['CCCCO'],"['CCC', 'CC[Si](C)(C)C', '.', 'CCCCO']",20.0,23.1,25,2.7,0.5191,0.011155
ptmsp,C/C(C)=C(C)/[Si](C)(C)C,n-butanol,CCCCO,100.0,,,99.0,,,,,"['CCC', 'CC[Si](C)(C)C', '.', 'CCCCO']",['CCCCO'],"['CCC', 'CC[Si](C)(C)C', '.', 'CCCCO']",22.0,23.1,25,2.7,0.06,0.019231
ptmsp,C/C(C)=C(C)/[Si](C)(C)C,n-butanol,CCCCO,100.0,,,98.5,,,,,"['CCC', 'CC[Si](C)(C)C', '.', 'CCCCO']",['CCCCO'],"['CCC', 'CC[Si](C)(C)C', '.', 'CCCCO']",22.0,23.1,25,2.7,0.06,0.018182
ptmsp,C/C(C)=C(C)/[Si](C)(C)C,n-butanol,CCCCO,100.0,,,99.5,,,,,"['CCC', 'CC[Si](C)(C)C', '.', 'CCCCO']",['CCCCO'],"['CCC', 'CC[Si](C)(C)C', '.', 'CCCCO']",22.0,23.1,25,2.7,0.078,0.012821
ptmsp,C/C(C)=C(C)/[Si](C)(C)C,n-butanol,CCCCO,100.0,,,99.7,,,,,"['CCC', 'CC[Si](C)(C)C', '.', 'CCCCO']",['CCCCO'],"['CCC', 'CC[Si](C)(C)C', '.', 'CCCCO']",22.0,23.1,25,2.7,0.124,0.019608
ptmsp,C/C(C)=C(C)/[Si](C)(C)C,n-butanol,CCCCO,100.0,,,94.0,,,,,"['CCC', 'CC[Si](C)(C)C', '.', 'CCCCO']",['CCCCO'],"['CCC', 'CC[Si](C)(C)C', '.', 'CCCCO']",22.0,23.1,25,2.7,0.436,0.016393
ptmsp,C/C(C)=C(C)/[Si](C)(C)C,n-butanol,CCCCO,100.0,,,99.7,,,,,"['CCC', 'CC[Si](C)(C)C', '.', 'CCCCO']",['CCCCO'],"['CCC', 'CC[Si](C)(C)C', '.', 'CCCCO']",22.0,23.1,70,2.7,0.762,0.021277
ptmsp,C/C(C)=C(C)/[Si](C)(C)C,n-butanol,CCCCO,100.0,,,99.5,,,,,"['CCC', 'CC[Si](C)(C)C', '.', 'CCCCO']",['CCCCO'],"['CCC', 'CC[Si](C)(C)C', '.', 'CCCCO']",22.0,23.1,70,2.7,0.831,0.016129
ptmsp,C/C(C)=C(C)/[Si](C)(C)C,n-butanol,CCCCO,100.0,,,99.0,,,,,"['CCC', 'CC[Si](C)(C)C', '.', 'CCCCO']",['CCCCO'],"['CCC', 'CC[Si](C)(C)C', '.', 'CCCCO']",22.0,23.1,70,2.7,0.999,0.014286
ptmsp,C/C(C)=C(C)/[Si](C)(C)C,n-butanol,CCCCO,100.0,,,94.0,,,,,"['CCC', 'CC[Si](C)(C)C', '.', 'CCCCO']",['CCCCO'],"['CCC', 'CC[Si](C)(C)C', '.', 'CCCCO']",22.0,23.1,70,2.7,1.512,0.02439
torlon,O=C(Nc2ccc(Oc1ccc(C)cc1)cc2)c4ccc3c(=O)n(C)c(=O)c3c4.O=C(Nc1cccc(C)c1)c3ccc2c(=O)n(C)c(=O)c2c3,ipa,CC(C)O,87.5,,,15.0,,,,,"['Cc1ccccc1', 'O', 'N', 'Cc1ccccc1', 'c1ccccc1', 'C=O', 'CN1C(=O)c2ccccc2C1=O', '.', 'CC(C)O']",['CC(C)O'],"['Cc1ccccc1', 'O', 'N', 'Cc1ccccc1', 'c1ccccc1', 'C=O', 'CN1C(=O)c2ccccc2C1=O', '.', 'CC(C)O']",50.0,23.5,60,1.0,0.0082,2828.0
torlon,O=C(Nc2ccc(Oc1ccc(C)cc1)cc2)c4ccc3c(=O)n(C)c(=O)c3c4.O=C(Nc1cccc(C)c1)c3ccc2c(=O)n(C)c(=O)c2c3,ethanol,CCO,87.5,,,15.0,,,,,"['Cc1ccccc1', 'O', 'N', 'Cc1ccccc1', 'c1ccccc1', 'C=O', 'CN1C(=O)c2ccccc2C1=O', '.', 'CCO']",['CCO'],"['Cc1ccccc1', 'O', 'N', 'Cc1ccccc1', 'c1ccccc1', 'C=O', 'CN1C(=O)c2ccccc2C1=O', '.', 'CCO']",50.0,26.5,60,1.0,0.0085,2155.0
p84,Cc2ccc(Cc1ccc(C)cc1)cc2.Cc1cc(C)ccc1n5c(=O)c4ccc(C(=O)c3ccc2c(=O)n(C)c(=O)c2c3)cc4c5=O,ipa,CC(C)O,82.3,,,15.0,,,,,"['CN1C(=O)c2ccccc2C1=O', 'C=O', 'Cc1cccc(C)c1', 'O=C1NC(=O)c2ccccc21', '.', 'CC(C)O']",['CC(C)O'],"['CN1C(=O)c2ccccc2C1=O', 'C=O', 'Cc1cccc(C)c1', 'O=C1NC(=O)c2ccccc21', '.', 'CC(C)O']",50.0,23.5,60,1.0,0.0152,5661.0
p84,Cc2ccc(Cc1ccc(C)cc1)cc2.Cc1cc(C)ccc1n5c(=O)c4ccc(C(=O)c3ccc2c(=O)n(C)c(=O)c2c3)cc4c5=O,n-butanol,CCCCO,82.3,,,15.0,,,,,"['CN1C(=O)c2ccccc2C1=O', 'C=O', 'Cc1cccc(C)c1', 'O=C1NC(=O)c2ccccc21', '.', 'CCCCO']",['CCCCO'],"['CN1C(=O)c2ccccc2C1=O', 'C=O', 'Cc1cccc(C)c1', 'O=C1NC(=O)c2ccccc21', '.', 'CCCCO']",50.0,23.1,60,1.0,0.018,5661.0
p84,Cc2ccc(Cc1ccc(C)cc1)cc2.Cc1cc(C)ccc1n5c(=O)c4ccc(C(=O)c3ccc2c(=O)n(C)c(=O)c2c3)cc4c5=O,ethanol,CCO,82.3,,,15.0,,,,,"['CN1C(=O)c2ccccc2C1=O', 'C=O', 'Cc1cccc(C)c1', 'O=C1NC(=O)c2ccccc21', '.', 'CCO']",['CCO'],"['CN1C(=O)c2ccccc2C1=O', 'C=O', 'Cc1cccc(C)c1', 'O=C1NC(=O)c2ccccc21', '.', 'CCO']",50.0,26.5,60,1.0,0.019,2822.0
matrimid,CC7(C)CC(C)(c5ccc(n4c(=O)c3ccc(C(=O)c2ccc1c(=O)n(C)c(=O)c1c2)cc3c4=O)cc5)c6cc(C)ccc67,ipa,CC(C)O,91.2,,,15.0,,,,,"['CN1C(=O)c2ccccc2C1=O', 'C=O', 'O=C1NC(=O)c2ccccc21', 'Cc1ccc2c(c1)C(C)(c1ccccc1)CC2(C)C', '.', 'CC(C)O']",['CC(C)O'],"['CN1C(=O)c2ccccc2C1=O', 'C=O', 'O=C1NC(=O)c2ccccc21', 'Cc1ccc2c(c1)C(C)(c1ccccc1)CC2(C)C', '.', 'CC(C)O']",50.0,23.5,60,1.0,0.0247,1368.0
matrimid,CC7(C)CC(C)(c5ccc(n4c(=O)c3ccc(C(=O)c2ccc1c(=O)n(C)c(=O)c1c2)cc3c4=O)cc5)c6cc(C)ccc67,n-butanol,CCCCO,91.2,,,15.0,,,,,"['CN1C(=O)c2ccccc2C1=O', 'C=O', 'O=C1NC(=O)c2ccccc21', 'Cc1ccc2c(c1)C(C)(c1ccccc1)CC2(C)C', '.', 'CCCCO']",['CCCCO'],"['CN1C(=O)c2ccccc2C1=O', 'C=O', 'O=C1NC(=O)c2ccccc21', 'Cc1ccc2c(c1)C(C)(c1ccccc1)CC2(C)C', '.', 'CCCCO']",50.0,23.1,60,1.0,0.0248,5661.0
matrimid,CC7(C)CC(C)(c5ccc(n4c(=O)c3ccc(C(=O)c2ccc1c(=O)n(C)c(=O)c1c2)cc3c4=O)cc5)c6cc(C)ccc67,ethanol,CCO,91.2,,,15.0,,,,,"['CN1C(=O)c2ccccc2C1=O', 'C=O', 'O=C1NC(=O)c2ccccc21', 'Cc1ccc2c(c1)C(C)(c1ccccc1)CC2(C)C', '.', 'CCO']",['CCO'],"['CN1C(=O)c2ccccc2C1=O', 'C=O', 'O=C1NC(=O)c2ccccc21', 'Cc1ccc2c(c1)C(C)(c1ccccc1)CC2(C)C', '.', 'CCO']",50.0,26.5,60,1.0,0.0256,505.0
peba,C(C)=O.COC(C)=O.COC.CNCCCCCCCCCCCC(C)=O.CCCCCOC,n-butanol,CCCCO,89.0,,,99.99241466,,,,,"['CO', 'CC=O', '.', 'CCCCO']",['CCCCO'],"['CO', 'CC=O', '.', 'CCCCO']",30.0,23.1,60,1.0,0.2708,0.026227
peba,C(C)=O.COC(C)=O.COC.CNCCCCCCCCCCCC(C)=O.CCCCCOC,n-butanol,CCCCO,89.0,,,99.98103666,,,,,"['CO', 'CC=O', '.', 'CCCCO']",['CCCCO'],"['CO', 'CC=O', '.', 'CCCCO']",30.0,23.1,60,1.0,0.3125,0.02849
peba,C(C)=O.COC(C)=O.COC.CNCCCCCCCCCCCC(C)=O.CCCCCOC,n-butanol,CCCCO,89.0,,,99.96839444,,,,,"['CO', 'CC=O', '.', 'CCCCO']",['CCCCO'],"['CO', 'CC=O', '.', 'CCCCO']",30.0,23.1,60,1.0,0.327,0.029308
peba,C(C)=O.COC(C)=O.COC.CNCCCCCCCCCCCC(C)=O.CCCCCOC,n-butanol,CCCCO,89.0,,,99.9494311,,,,,"['CO', 'CC=O', '.', 'CCCCO']",['CCCCO'],"['CO', 'CC=O', '.', 'CCCCO']",30.0,23.1,60,1.0,0.3599,0.029539
peba,C(C)=O.COC(C)=O.COC.CNCCCCCCCCCCCC(C)=O.CCCCCOC,n-butanol,CCCCO,89.0,,,99.80151707,,,,,"['CO', 'CC=O', '.', 'CCCCO']",['CCCCO'],"['CO', 'CC=O', '.', 'CCCCO']",30.0,23.1,60,1.0,0.4159,0.029539
peba,C(C)=O.COC(C)=O.COC.CNCCCCCCCCCCCC(C)=O.CCCCCOC,n-butanol,CCCCO,89.0,,,99.92667509,,,,,"['CO', 'CC=O', '.', 'CCCCO']",['CCCCO'],"['CO', 'CC=O', '.', 'CCCCO']",30.0,23.1,60,1.0,0.3932,0.029933
peba,C(C)=O.COC(C)=O.COC.CNCCCCCCCCCCCC(C)=O.CCCCCOC,n-butanol,CCCCO,89.0,,,99.89759798,,,,,"['CO', 'CC=O', '.', 'CCCCO']",['CCCCO'],"['CO', 'CC=O', '.', 'CCCCO']",30.0,23.1,60,1.0,0.4155,0.030669
peba,C(C)=O.COC(C)=O.COC.CNCCCCCCCCCCCC(C)=O.CCCCCOC,n-butanol,CCCCO,89.0,,,99.98988622,,,,,"['CO', 'CC=O', '.', 'CCCCO']",['CCCCO'],"['CO', 'CC=O', '.', 'CCCCO']",30.0,23.1,50,1.0,0.1459,0.031443
peba,C(C)=O.COC(C)=O.COC.CNCCCCCCCCCCCC(C)=O.CCCCCOC,n-butanol,CCCCO,89.0,,,99.69279393,,,,,"['CO', 'CC=O', '.', 'CCCCO']",['CCCCO'],"['CO', 'CC=O', '.', 'CCCCO']",30.0,23.1,60,1.0,0.4877,0.03198
peba,C(C)=O.COC(C)=O.COC.CNCCCCCCCCCCCC(C)=O.CCCCCOC,n-butanol,CCCCO,89.0,,,99.59924147,,,,,"['CO', 'CC=O', '.', 'CCCCO']",['CCCCO'],"['CO', 'CC=O', '.', 'CCCCO']",30.0,23.1,60,1.0,0.5038,0.032256
peba,C(C)=O.COC(C)=O.COC.CNCCCCCCCCCCCC(C)=O.CCCCCOC,n-butanol,CCCCO,89.0,,,99.96839444,,,,,"['CO', 'CC=O', '.', 'CCCCO']",['CCCCO'],"['CO', 'CC=O', '.', 'CCCCO']",30.0,23.1,50,1.0,0.1833,0.03381
peba,C(C)=O.COC(C)=O.COC.CNCCCCCCCCCCCC(C)=O.CCCCCOC,n-butanol,CCCCO,89.0,,,99.94437421,,,,,"['CO', 'CC=O', '.', 'CCCCO']",['CCCCO'],"['CO', 'CC=O', '.', 'CCCCO']",30.0,23.1,50,1.0,0.2388,0.035748
peba,C(C)=O.COC(C)=O.COC.CNCCCCCCCCCCCC(C)=O.CCCCCOC,n-butanol,CCCCO,89.0,,,99.89380531,,,,,"['CO', 'CC=O', '.', 'CCCCO']",['CCCCO'],"['CO', 'CC=O', '.', 'CCCCO']",30.0,23.1,50,1.0,0.2986,0.037417
peba,C(C)=O.COC(C)=O.COC.CNCCCCCCCCCCCC(C)=O.CCCCCOC,n-butanol,CCCCO,89.0,,,99.77496839,,,,,"['CO', 'CC=O', '.', 'CCCCO']",['CCCCO'],"['CO', 'CC=O', '.', 'CCCCO']",30.0,23.1,50,1.0,0.3586,0.039248
peba,C(C)=O.COC(C)=O.COC.CNCCCCCCCCCCCC(C)=O.CCCCCOC,n-butanol,CCCCO,89.0,,,99.92667509,,,,,"['CO', 'CC=O', '.', 'CCCCO']",['CCCCO'],"['CO', 'CC=O', '.', 'CCCCO']",30.0,23.1,50,1.0,0.2495,0.039805
peba,C(C)=O.COC(C)=O.COC.CNCCCCCCCCCCCC(C)=O.CCCCCOC,n-butanol,CCCCO,89.0,,,99.6182048,,,,,"['CO', 'CC=O', '.', 'CCCCO']",['CCCCO'],"['CO', 'CC=O', '.', 'CCCCO']",30.0,23.1,50,1.0,0.3887,0.040378
peba,C(C)=O.COC(C)=O.COC.CNCCCCCCCCCCCC(C)=O.CCCCCOC,n-butanol,CCCCO,89.0,,,99.67635904,,,,,"['CO', 'CC=O', '.', 'CCCCO']",['CCCCO'],"['CO', 'CC=O', '.', 'CCCCO']",30.0,23.1,50,1.0,0.3647,0.04067
peba,C(C)=O.COC(C)=O.COC.CNCCCCCCCCCCCC(C)=O.CCCCCOC,n-butanol,CCCCO,89.0,,,99.98230088,,,,,"['CO', 'CC=O', '.', 'CCCCO']",['CCCCO'],"['CO', 'CC=O', '.', 'CCCCO']",30.0,23.1,40,1.0,0.0534,0.042519
peba,C(C)=O.COC(C)=O.COC.CNCCCCCCCCCCCC(C)=O.CCCCCOC,n-butanol,CCCCO,89.0,,,99.96965866,,,,,"['CO', 'CC=O', '.', 'CCCCO']",['CCCCO'],"['CO', 'CC=O', '.', 'CCCCO']",30.0,23.1,40,1.0,0.1062,0.045445
peba,C(C)=O.COC(C)=O.COC.CNCCCCCCCCCCCC(C)=O.CCCCCOC,n-butanol,CCCCO,89.0,,,99.95828066,,,,,"['CO', 'CC=O', '.', 'CCCCO']",['CCCCO'],"['CO', 'CC=O', '.', 'CCCCO']",30.0,23.1,40,1.0,0.1269,0.046193
peba,C(C)=O.COC(C)=O.COC.CNCCCCCCCCCCCC(C)=O.CCCCCOC,n-butanol,CCCCO,89.0,,,99.94690265,,,,,"['CO', 'CC=O', '.', 'CCCCO']",['CCCCO'],"['CO', 'CC=O', '.', 'CCCCO']",30.0,23.1,40,1.0,0.1851,0.049232
peba,C(C)=O.COC(C)=O.COC.CNCCCCCCCCCCCC(C)=O.CCCCCOC,n-butanol,CCCCO,89.0,,,99.82300885,,,,,"['CO', 'CC=O', '.', 'CCCCO']",['CCCCO'],"['CO', 'CC=O', '.', 'CCCCO']",30.0,23.1,40,1.0,0.2181,0.049232
peba,C(C)=O.COC(C)=O.COC.CNCCCCCCCCCCCC(C)=O.CCCCCOC,n-butanol,CCCCO,89.0,,,99.89254109,,,,,"['CO', 'CC=O', '.', 'CCCCO']",['CCCCO'],"['CO', 'CC=O', '.', 'CCCCO']",30.0,23.1,40,1.0,0.1923,0.050112
peba,C(C)=O.COC(C)=O.COC.CNCCCCCCCCCCCC(C)=O.CCCCCOC,n-butanol,CCCCO,89.0,,,99.79519595,,,,,"['CO', 'CC=O', '.', 'CCCCO']",['CCCCO'],"['CO', 'CC=O', '.', 'CCCCO']",30.0,23.1,40,1.0,0.2573,0.052948
peba,C(C)=O.COC(C)=O.COC.CNCCCCCCCCCCCC(C)=O.CCCCCOC,n-butanol,CCCCO,89.0,,,99.58912769,,,,,"['CO', 'CC=O', '.', 'CCCCO']",['CCCCO'],"['CO', 'CC=O', '.', 'CCCCO']",30.0,23.1,40,1.0,0.3054,0.053708
peba,C(C)=O.COC(C)=O.COC.CNCCCCCCCCCCCC(C)=O.CCCCCOC,n-butanol,CCCCO,89.0,,,99.95069532,,,,,"['CO', 'CC=O', '.', 'CCCCO']",['CCCCO'],"['CO', 'CC=O', '.', 'CCCCO']",30.0,23.1,29,1.0,0.063,0.057861
peba,C(C)=O.COC(C)=O.COC.CNCCCCCCCCCCCC(C)=O.CCCCCOC,n-butanol,CCCCO,89.0,,,99.93046776,,,,,"['CO', 'CC=O', '.', 'CCCCO']",['CCCCO'],"['CO', 'CC=O', '.', 'CCCCO']",30.0,23.1,29,1.0,0.1157,0.063778
peba,C(C)=O.COC(C)=O.COC.CNCCCCCCCCCCCC(C)=O.CCCCCOC,n-butanol,CCCCO,89.0,,,99.91782554,,,,,"['CO', 'CC=O', '.', 'CCCCO']",['CCCCO'],"['CO', 'CC=O', '.', 'CCCCO']",30.0,23.1,29,1.0,0.1172,0.071497
peba,C(C)=O.COC(C)=O.COC.CNCCCCCCCCCCCC(C)=O.CCCCCOC,n-butanol,CCCCO,89.0,,,99.85208597,,,,,"['CO', 'CC=O', '.', 'CCCCO']",['CCCCO'],"['CO', 'CC=O', '.', 'CCCCO']",30.0,23.1,29,1.0,0.1167,0.077951
peba,C(C)=O.COC(C)=O.COC.CNCCCCCCCCCCCC(C)=O.CCCCCOC,n-butanol,CCCCO,89.0,,,99.8091024,,,,,"['CO', 'CC=O', '.', 'CCCCO']",['CCCCO'],"['CO', 'CC=O', '.', 'CCCCO']",30.0,23.1,29,1.0,0.1317,0.07961
peba,C(C)=O.COC(C)=O.COC.CNCCCCCCCCCCCC(C)=O.CCCCCOC,n-butanol,CCCCO,89.0,,,95.7,,,,,"['CO', 'CC=O', '.', 'CCCCO']",['CCCCO'],"['CO', 'CC=O', '.', 'CCCCO']",30.0,23.1,35,3.2,0.5704,0.033815
peba,C(C)=O.COC(C)=O.COC.CNCCCCCCCCCCCC(C)=O.CCCCCOC,n-butanol,CCCCO,89.0,,,97.5,,,,,"['CO', 'CC=O', '.', 'CCCCO']",['CCCCO'],"['CO', 'CC=O', '.', 'CCCCO']",30.0,23.1,35,3.2,0.2656,0.039522
peba,C(C)=O.COC(C)=O.COC.CNCCCCCCCCCCCC(C)=O.CCCCCOC,n-butanol,CCCCO,89.0,,,99.0,,,,,"['CO', 'CC=O', '.', 'CCCCO']",['CCCCO'],"['CO', 'CC=O', '.', 'CCCCO']",5.0,23.1,40,3.0,1.620111732,0.042619
peba,C(C)=O.COC(C)=O.COC.CNCCCCCCCCCCCC(C)=O.CCCCCOC,n-butanol,CCCCO,89.0,,,98.0,,,,,"['CO', 'CC=O', '.', 'CCCCO']",['CCCCO'],"['CO', 'CC=O', '.', 'CCCCO']",3.5,23.1,40,3.0,2.5,0.046316
peba,C(C)=O.COC(C)=O.COC.CNCCCCCCCCCCCC(C)=O.CCCCCOC,n-butanol,CCCCO,89.0,,,99.0,,,,,"['CO', 'CC=O', '.', 'CCCCO']",['CCCCO'],"['CO', 'CC=O', '.', 'CCCCO']",3.5,23.1,40,3.0,2.0,0.046667
peba,C(C)=O.COC(C)=O.COC.CNCCCCCCCCCCCC(C)=O.CCCCCOC,n-butanol,CCCCO,89.0,,,99.0,,,,,"['CO', 'CC=O', '.', 'CCCCO']",['CCCCO'],"['CO', 'CC=O', '.', 'CCCCO']",3.5,23.1,50,3.0,3.0,0.046667
peba,C(C)=O.COC(C)=O.COC.CNCCCCCCCCCCCC(C)=O.CCCCCOC,n-butanol,CCCCO,89.0,,,99.0,,,,,"['CO', 'CC=O', '.', 'CCCCO']",['CCCCO'],"['CO', 'CC=O', '.', 'CCCCO']",3.5,23.1,60,3.0,4.2,0.048611
peba,C(C)=O.COC(C)=O.COC.CNCCCCCCCCCCCC(C)=O.CCCCCOC,n-butanol,CCCCO,89.0,,,96.0,,,,,"['CO', 'CC=O', '.', 'CCCCO']",['CCCCO'],"['CO', 'CC=O', '.', 'CCCCO']",3.5,23.1,40,3.0,4.113636364,0.051014
peba,C(C)=O.COC(C)=O.COC.CNCCCCCCCCCCCC(C)=O.CCCCCOC,n-butanol,CCCCO,89.0,,,99.0,,,,,"['CO', 'CC=O', '.', 'CCCCO']",['CCCCO'],"['CO', 'CC=O', '.', 'CCCCO']",3.5,23.1,30,3.0,1.028571429,0.054688
peba,C(C)=O.COC(C)=O.COC.CNCCCCCCCCCCCC(C)=O.CCCCCOC,n-butanol,CCCCO,89.0,,,99.0,,,,,"['CO', 'CC=O', '.', 'CCCCO']",['CCCCO'],"['CO', 'CC=O', '.', 'CCCCO']",2.0,23.1,40,3.0,4.413407821,0.074583
peba,C(C)=O.COC(C)=O.COC.CNCCCCCCCCCCCC(C)=O.CCCCCOC,n-butanol,CCCCO,89.0,,,96.3,,,,,"['CO', 'CC=O', '.', 'CCCCO']",['CCCCO'],"['CO', 'CC=O', '.', 'CCCCO']",7.0,23.1,34,1.3,1.043,0.107526882
pdms,[Si](C)(C)(C)O(C),n-butanol,CCCCO,108.08219,,,99.0,,,,,"['CO[Si](C)(C)C', '.', 'CCCCO']",['CCCCO'],"['CO[Si](C)(C)C', '.', 'CCCCO']",20.0,23.1,40,2.1,0.775895765,0.024612
pdms,[Si](C)(C)(C)O(C),n-butanol,CCCCO,108.08219,,,99.0,,,,,"['CO[Si](C)(C)C', '.', 'CCCCO']",['CCCCO'],"['CO[Si](C)(C)C', '.', 'CCCCO']",10.0,23.1,40,2.1,0.778,0.02457
pdms,[Si](C)(C)(C)O(C),n-butanol,CCCCO,108.08219,,,99.0,,,,,"['CO[Si](C)(C)C', '.', 'CCCCO']",['CCCCO'],"['CO[Si](C)(C)C', '.', 'CCCCO']",10.0,23.1,40,2.1,0.805211726,0.024738
pdms,[Si](C)(C)(C)O(C),n-butanol,CCCCO,108.08219,,,99.5,,,,,"['CO[Si](C)(C)C', '.', 'CCCCO']",['CCCCO'],"['CO[Si](C)(C)C', '.', 'CCCCO']",10.0,23.1,40,2.1,1.064655172,0.021294
pdms,[Si](C)(C)(C)O(C),n-butanol,CCCCO,108.08219,,,99.0,,,,,"['CO[Si](C)(C)C', '.', 'CCCCO']",['CCCCO'],"['CO[Si](C)(C)C', '.', 'CCCCO']",10.0,23.1,40,2.1,1.258358663,0.023305
pdms,[Si](C)(C)(C)O(C),n-butanol,CCCCO,108.08219,,,99.0,,,,,"['CO[Si](C)(C)C', '.', 'CCCCO']",['CCCCO'],"['CO[Si](C)(C)C', '.', 'CCCCO']",10.0,23.1,40,2.1,1.282,0.02331
pdms,[Si](C)(C)(C)O(C),n-butanol,CCCCO,108.08219,,,99.0,,,,,"['CO[Si](C)(C)C', '.', 'CCCCO']",['CCCCO'],"['CO[Si](C)(C)C', '.', 'CCCCO']",10.0,23.1,40,2.1,1.284482759,0.023294
pdms,[Si](C)(C)(C)O(C),n-butanol,CCCCO,108.08219,,,98.0,,,,,"['CO[Si](C)(C)C', '.', 'CCCCO']",['CCCCO'],"['CO[Si](C)(C)C', '.', 'CCCCO']",10.0,23.1,40,2.1,1.620689655,0.024442
pdms,[Si](C)(C)(C)O(C),n-butanol,CCCCO,108.08219,,,99.0,,,,,"['CO[Si](C)(C)C', '.', 'CCCCO']",['CCCCO'],"['CO[Si](C)(C)C', '.', 'CCCCO']",10.0,23.1,50,2.1,1.957446809,0.023605
pdms,[Si](C)(C)(C)O(C),n-butanol,CCCCO,108.08219,,,97.0,,,,,"['CO[Si](C)(C)C', '.', 'CCCCO']",['CCCCO'],"['CO[Si](C)(C)C', '.', 'CCCCO']",10.0,23.1,40,2.1,1.989224138,0.025709
pdms,[Si](C)(C)(C)O(C),n-butanol,CCCCO,108.08219,,,96.0,,,,,"['CO[Si](C)(C)C', '.', 'CCCCO']",['CCCCO'],"['CO[Si](C)(C)C', '.', 'CCCCO']",10.0,23.1,40,2.1,2.435344828,0.026436
pdms,[Si](C)(C)(C)O(C),n-butanol,CCCCO,108.08219,,,99.0,,,,,"['CO[Si](C)(C)C', '.', 'CCCCO']",['CCCCO'],"['CO[Si](C)(C)C', '.', 'CCCCO']",10.0,23.1,60,2.1,2.671732523,0.025229
pdms,[Si](C)(C)(C)O(C),n-butanol,CCCCO,108.08219,,,99.0,,,,,"['CO[Si](C)(C)C', '.', 'CCCCO']",['CCCCO'],"['CO[Si](C)(C)C', '.', 'CCCCO']",10.0,23.1,70,2.1,3.6443769,0.0275
pdms,[Si](C)(C)(C)O(C),n-butanol,CCCCO,108.08219,,,99.0,,,,,"['CO[Si](C)(C)C', '.', 'CCCCO']",['CCCCO'],"['CO[Si](C)(C)C', '.', 'CCCCO']",10.0,23.1,80,2.1,4.76899696,0.028497
pdms,[Si](C)(C)(C)O(C),n-butanol,CCCCO,108.08219,,,99.0,,,,,"['CO[Si](C)(C)C', '.', 'CCCCO']",['CCCCO'],"['CO[Si](C)(C)C', '.', 'CCCCO']",6.0,23.1,40,2.1,0.927361564,0.0283
pdms,[Si](C)(C)(C)O(C),n-butanol,CCCCO,108.08219,,,99.0,,,,,"['CO[Si](C)(C)C', '.', 'CCCCO']",['CCCCO'],"['CO[Si](C)(C)C', '.', 'CCCCO']",4.0,23.1,40,2.1,1.240065147,0.033521
pdms,[Si](C)(C)(C)O(C),n-butanol,CCCCO,108.08219,,,99.0,,,,,"['CO[Si](C)(C)C', '.', 'CCCCO']",['CCCCO'],"['CO[Si](C)(C)C', '.', 'CCCCO']",2.0,23.1,40,2.1,1.880130293,0.03863
pdms,[Si](C)(C)(C)O(C),n-butanol,CCCCO,108.08219,,,98.5,,,,,"['CO[Si](C)(C)C', '.', 'CCCCO']",['CCCCO'],"['CO[Si](C)(C)C', '.', 'CCCCO']",10.0,23.1,55,2.0,0.8,0.023816
pdms,[Si](C)(C)(C)O(C),n-butanol,CCCCO,108.08219,,,99.0,,,,,"['CO[Si](C)(C)C', '.', 'CCCCO']",['CCCCO'],"['CO[Si](C)(C)C', '.', 'CCCCO']",25.01414528,23.1,40,4.0,0.221771424,0.018849
pdms,[Si](C)(C)(C)O(C),n-butanol,CCCCO,108.08219,,,99.0,,,,,"['CO[Si](C)(C)C', '.', 'CCCCO']",['CCCCO'],"['CO[Si](C)(C)C', '.', 'CCCCO']",15.02445855,23.1,40,4.0,0.382658555,0.017288
pdms,[Si](C)(C)(C)O(C),n-butanol,CCCCO,108.08219,,,99.0,,,,,"['CO[Si](C)(C)C', '.', 'CCCCO']",['CCCCO'],"['CO[Si](C)(C)C', '.', 'CCCCO']",11.0661469,23.1,40,4.0,0.632996811,0.018719
pdms,[Si](C)(C)(C)O(C),n-butanol,CCCCO,108.08219,,,99.0,,,,,"['CO[Si](C)(C)C', '.', 'CCCCO']",['CCCCO'],"['CO[Si](C)(C)C', '.', 'CCCCO']",4.405094191,23.1,30,4.0,0.7073,0.025529
pdms,[Si](C)(C)(C)O(C),n-butanol,CCCCO,108.08219,,,99.0,,,,,"['CO[Si](C)(C)C', '.', 'CCCCO']",['CCCCO'],"['CO[Si](C)(C)C', '.', 'CCCCO']",4.405094191,23.1,40,4.0,0.720574516,0.02381
pdms,[Si](C)(C)(C)O(C),n-butanol,CCCCO,108.08219,,,99.08,,,,,"['CO[Si](C)(C)C', '.', 'CCCCO']",['CCCCO'],"['CO[Si](C)(C)C', '.', 'CCCCO']",4.405094191,23.1,40,4.0,0.744444444,0.023971
pdms,[Si](C)(C)(C)O(C),n-butanol,CCCCO,108.08219,,,99.0,,,,,"['CO[Si](C)(C)C', '.', 'CCCCO']",['CCCCO'],"['CO[Si](C)(C)C', '.', 'CCCCO']",4.405094191,23.1,40,4.0,0.769430052,0.023827
pdms,[Si](C)(C)(C)O(C),n-butanol,CCCCO,108.08219,,,98.49333333,,,,,"['CO[Si](C)(C)C', '.', 'CCCCO']",['CCCCO'],"['CO[Si](C)(C)C', '.', 'CCCCO']",4.405094191,23.1,40,4.0,0.877777778,0.023404
pdms,[Si](C)(C)(C)O(C),n-butanol,CCCCO,108.08219,,,97.88,,,,,"['CO[Si](C)(C)C', '.', 'CCCCO']",['CCCCO'],"['CO[Si](C)(C)C', '.', 'CCCCO']",4.405094191,23.1,40,4.0,0.977777778,0.022551
pdms,[Si](C)(C)(C)O(C),n-butanol,CCCCO,108.08219,,,97.28,,,,,"['CO[Si](C)(C)C', '.', 'CCCCO']",['CCCCO'],"['CO[Si](C)(C)C', '.', 'CCCCO']",4.405094191,23.1,40,4.0,1.138888889,0.02129
pdms,[Si](C)(C)(C)O(C),n-butanol,CCCCO,108.08219,,,99.0,,,,,"['CO[Si](C)(C)C', '.', 'CCCCO']",['CCCCO'],"['CO[Si](C)(C)C', '.', 'CCCCO']",4.405094191,23.1,50,4.0,1.183937824,0.022494
pdms,[Si](C)(C)(C)O(C),n-butanol,CCCCO,108.08219,,,99.0,,,,,"['CO[Si](C)(C)C', '.', 'CCCCO']",['CCCCO'],"['CO[Si](C)(C)C', '.', 'CCCCO']",4.405094191,23.1,60,4.0,1.588082902,0.020887
pdms,[Si](C)(C)(C)O(C),n-butanol,CCCCO,108.08219,,,99.0,,,,,"['CO[Si](C)(C)C', '.', 'CCCCO']",['CCCCO'],"['CO[Si](C)(C)C', '.', 'CCCCO']",4.405094191,23.1,70,4.0,2.20984456,0.021588
pdms,[Si](C)(C)(C)O(C),n-butanol,CCCCO,108.2,,,98.5,,,,,"['CO[Si](C)(C)C', '.', 'CCCCO']",['CCCCO'],"['CO[Si](C)(C)C', '.', 'CCCCO']",11.5,23.1,55,0.6,0.6926829,0.023782