Polymer,Polymer_SMILES,Solvent,Solvent_SMILES,Contact_angle,Thickness,Solvent_solubility_parameter,xw_wt_percent,Temperature,Permeate_pressure,J_total_flux,a_separation_factor,Polymer_BRICS,Solvent_BRICS,PS_pair_BRICS,Thickness_um,Solvent_solubility_parameter_Mpa_sqrt,Temp_C,Permeate_pressure_mbar,J_Total_flux_kg_m_2h_1,a_Separation_factor_wo
chitosan,NC2C(O)C(OC1OC(CO)C(O(C))C(O)C1N)C(CO)OC2(C),ipa,CC(C)O,55.1,,,10.0,,,,,"['CO', 'O', 'CO', 'CC1OCCC(O)C1N', 'NC1COCCC1O', '.', 'CC(C)O']",['CC(C)O'],"['CO', 'O', 'CO', 'CC1OCCC(O)C1N', 'NC1COCCC1O', '.', 'CC(C)O']",40.0,23.5,30,13.3,0.0523,257.352941
chitosan,NC2C(O)C(OC1OC(CO)C(O(C))C(O)C1N)C(CO)OC2(C),ipa,CC(C)O,55.1,,,25.0,,,,,"['CO', 'O', 'CO', 'CC1OCCC(O)C1N', 'NC1COCCC1O', '.', 'CC(C)O']",['CC(C)O'],"['CO', 'O', 'CO', 'CC1OCCC(O)C1N', 'NC1COCCC1O', '.', 'CC(C)O']",40.0,23.5,30,13.3,0.1984,49.019608
peba,C(C)=O.COC(C)=O.COC.CNCCCCCCCCCCCC(C)=O.CCCCCOC,ipa,CC(C)O,89.0,,,60.0,,,,,"['CO', 'CC=O', '.', 'CC(C)O']",['CC(C)O'],"['CO', 'CC=O', '.', 'CC(C)O']",100.0,23.5,30,6.7,1.2722,0.472727187
peba,C(C)=O.COC(C)=O.COC.CNCCCCCCCCCCCC(C)=O.CCCCCOC,ipa,CC(C)O,89.0,,,90.0,,,,,"['CO', 'CC=O', '.', 'CC(C)O']",['CC(C)O'],"['CO', 'CC=O', '.', 'CC(C)O']",100.0,23.5,40,6.7,0.6345,0.220987638
pbo,FC(F)(F)C(c1ccc(C)cc1)(c6ccc(c5nc4ccc(c3ccc2nc(C)oc2c3)cc4o5)cc6)C(F)(F)F,ethanol,CCO,82.0,,,5.0,,,,,"['Cc1ccccc1', 'FC(F)(F)CC(F)(F)F', 'c1ccccc1', 'c1ccc2ocnc2c1', 'Cc1nc2ccccc2o1', '.', 'CCO']",['CCO'],"['Cc1ccccc1', 'FC(F)(F)CC(F)(F)F', 'c1ccccc1', 'c1ccc2ocnc2c1', 'Cc1nc2ccccc2o1', '.', 'CCO']",24.24,26.5,25,1.0,0.0324,77.917431
p84,Cc2ccc(Cc1ccc(C)cc1)cc2.Cc1cc(C)ccc1n5c(=O)c4ccc(C(=O)c3ccc2c(=O)n(C)c(=O)c2c3)cc4c5=O,ipa,CC(C)O,82.3,,,15.0,,,,,"['CN1C(=O)c2ccccc2C1=O', 'C=O', 'Cc1cccc(C)c1', 'O=C1NC(=O)c2ccccc21', '.', 'CC(C)O']",['CC(C)O'],"['CN1C(=O)c2ccccc2C1=O', 'C=O', 'Cc1cccc(C)c1', 'O=C1NC(=O)c2ccccc21', '.', 'CC(C)O']",39.0,23.5,60,5.0,0.0136,1347.701149
p84,Cc2ccc(Cc1ccc(C)cc1)cc2.Cc1cc(C)ccc1n5c(=O)c4ccc(C(=O)c3ccc2c(=O)n(C)c(=O)c2c3)cc4c5=O,ipa,CC(C)O,82.3,,,15.0,,,,,"['CN1C(=O)c2ccccc2C1=O', 'C=O', 'Cc1cccc(C)c1', 'O=C1NC(=O)c2ccccc21', '.', 'CC(C)O']",['CC(C)O'],"['CN1C(=O)c2ccccc2C1=O', 'C=O', 'Cc1cccc(C)c1', 'O=C1NC(=O)c2ccccc21', '.', 'CC(C)O']",28.0,23.5,60,5.0,0.0273,1106.321839
p84,Cc2ccc(Cc1ccc(C)cc1)cc2.Cc1cc(C)ccc1n5c(=O)c4ccc(C(=O)c3ccc2c(=O)n(C)c(=O)c2c3)cc4c5=O,ipa,CC(C)O,82.3,,,15.0,,,,,"['CN1C(=O)c2ccccc2C1=O', 'C=O', 'Cc1cccc(C)c1', 'O=C1NC(=O)c2ccccc21', '.', 'CC(C)O']",['CC(C)O'],"['CN1C(=O)c2ccccc2C1=O', 'C=O', 'Cc1cccc(C)c1', 'O=C1NC(=O)c2ccccc21', '.', 'CC(C)O']",10.0,23.5,80,5.0,0.1159,1790.229885
pva,C(C)C(C)(O),ipa,CC(C)O,74.0,,,25.0,,,,,"['CCC(C)O', '.', 'CC(C)O']",['CC(C)O'],"['CCC(C)O', '.', 'CC(C)O']",22.0,23.5,25,1.3,0.0967,11.049505
pva,C(C)C(C)(O),ipa,CC(C)O,74.0,,,10.0,,,,,"['CCC(C)O', '.', 'CC(C)O']",['CC(C)O'],"['CCC(C)O', '.', 'CC(C)O']",22.0,23.5,75,1.3,3.4653,1.663366337
pva,C(C)C(C)(O),ipa,CC(C)O,74.0,,,10.0,,,,,"['CCC(C)O', '.', 'CC(C)O']",['CC(C)O'],"['CCC(C)O', '.', 'CC(C)O']",22.0,23.5,40,3.0,0.0311,142.9
pva,C(C)C(C)(O),ethanol,CCO,74.0,,,12.5,,,,,"['CCC(C)O', '.', 'CCO']",['CCO'],"['CCC(C)O', '.', 'CCO']",22.0,26.5,33,3.0,0.0489,78.27
pva,C(C)C(C)(O),ipa,CC(C)O,74.0,,,12.5,,,,,"['CCC(C)O', '.', 'CC(C)O']",['CC(C)O'],"['CCC(C)O', '.', 'CC(C)O']",22.0,23.5,50,3.0,0.0546,100.58
pva,C(C)C(C)(O),ipa,CC(C)O,74.0,,,15.0,,,,,"['CCC(C)O', '.', 'CC(C)O']",['CC(C)O'],"['CCC(C)O', '.', 'CC(C)O']",22.0,23.5,40,3.0,0.0602,111.77
pva,C(C)C(C)(O),ethanol,CCO,74.0,,,12.5,,,,,"['CCC(C)O', '.', 'CCO']",['CCO'],"['CCC(C)O', '.', 'CCO']",22.0,26.5,50,3.0,0.0621,84.37
pva,C(C)C(C)(O),ipa,CC(C)O,74.0,,,15.0,,,,,"['CCC(C)O', '.', 'CC(C)O']",['CC(C)O'],"['CCC(C)O', '.', 'CC(C)O']",22.0,23.5,40,3.0,0.0711,105.89
pva,C(C)C(C)(O),ethanol,CCO,74.0,,,17.0,,,,,"['CCC(C)O', '.', 'CCO']",['CCO'],"['CCC(C)O', '.', 'CCO']",22.0,26.5,50,3.0,0.0846,88.26
chitosan,NC2C(O)C(OC1OC(CO)C(O(C))C(O)C1N)C(CO)OC2(C),ethanol,CCO,55.1,,,20.0,,,,,"['CO', 'O', 'CO', 'CC1OCCC(O)C1N', 'NC1COCCC1O', '.', 'CCO']",['CCO'],"['CO', 'O', 'CO', 'CC1OCCC(O)C1N', 'NC1COCCC1O', '.', 'CCO']",45.0,26.5,60,3.0,0.6962,75.704358
chitosan,NC2C(O)C(OC1OC(CO)C(O(C))C(O)C1N)C(CO)OC2(C),ipa,CC(C)O,55.1,,,30.0,,,,,"['CO', 'O', 'CO', 'CC1OCCC(O)C1N', 'NC1COCCC1O', '.', 'CC(C)O']",['CC(C)O'],"['CO', 'O', 'CO', 'CC1OCCC(O)C1N', 'NC1COCCC1O', '.', 'CC(C)O']",45.0,23.5,60,3.0,1.7778,118.076902
alginate,O=C(O)C1OC(C)C(O)C(O)C1O(C).O=C(O)C1OC(C)C(O)C(O)C1O(C),ipa,CC(C)O,37.37,,,20.0,,,,,"['CO', 'O=CO', 'CC1OCCC(O)C1O', '.', 'CC(C)O']",['CC(C)O'],"['CO', 'O=CO', 'CC1OCCC(O)C1O', '.', 'CC(C)O']",45.0,23.5,60,3.0,2.0317,1394.215469
alginate,O=C(O)C1OC(C)C(O)C(O)C1O(C).O=C(O)C1OC(C)C(O)C(O)C1O(C),ipa,CC(C)O,37.37,,,5.0,,,,,"['CO', 'O=CO', 'CC1OCCC(O)C1O', '.', 'CC(C)O']",['CC(C)O'],"['CO', 'O=CO', 'CC1OCCC(O)C1O', '.', 'CC(C)O']",40.0,23.5,30,1.33,0.0506,385.26
alginate,O=C(O)C1OC(C)C(O)C(O)C1O(C).O=C(O)C1OC(C)C(O)C(O)C1O(C),ipa,CC(C)O,37.37,,,15.0,,,,,"['CO', 'O=CO', 'CC1OCCC(O)C1O', '.', 'CC(C)O']",['CC(C)O'],"['CO', 'O=CO', 'CC1OCCC(O)C1O', '.', 'CC(C)O']",40.0,23.5,30,1.33,0.0998,103.31
alginate,O=C(O)C1OC(C)C(O)C(O)C1O(C).O=C(O)C1OC(C)C(O)C(O)C1O(C),acetic_acid,CC(=O)O,37.37,,,50.0,,,,,"['CO', 'O=CO', 'CC1OCCC(O)C1O', '.', 'CC(=O)O']",['CC(=O)O'],"['CO', 'O=CO', 'CC1OCCC(O)C1O', '.', 'CC(=O)O']",30.0,21.4,30,13.3,0.477,2.7
alginate,O=C(O)C1OC(C)C(O)C(O)C1O(C).O=C(O)C1OC(C)C(O)C(O)C1O(C),ethanol,CCO,37.37,,,4.0,,,,,"['CO', 'O=CO', 'CC1OCCC(O)C1O', '.', 'CCO']",['CCO'],"['CO', 'O=CO', 'CC1OCCC(O)C1O', '.', 'CCO']",10.0,26.5,50,13.3,0.098,25.792531
alginate,O=C(O)C1OC(C)C(O)C(O)C1O(C).O=C(O)C1OC(C)C(O)C(O)C1O(C),ethanol,CCO,37.37,,,10.0,,,,,"['CO', 'O=CO', 'CC1OCCC(O)C1O', '.', 'CCO']",['CCO'],"['CO', 'O=CO', 'CC1OCCC(O)C1O', '.', 'CCO']",62.5,26.5,30,13.3,0.027,35.0
alginate,O=C(O)C1OC(C)C(O)C(O)C1O(C).O=C(O)C1OC(C)C(O)C(O)C1O(C),ipa,CC(C)O,37.37,,,20.0,,,,,"['CO', 'O=CO', 'CC1OCCC(O)C1O', '.', 'CC(C)O']",['CC(C)O'],"['CO', 'O=CO', 'CC1OCCC(O)C1O', '.', 'CC(C)O']",62.5,23.5,30,13.3,0.122,223.0
alginate,O=C(O)C1OC(C)C(O)C(O)C1O(C).O=C(O)C1OC(C)C(O)C(O)C1O(C),ipa,CC(C)O,37.37,,,30.0,,,,,"['CO', 'O=CO', 'CC1OCCC(O)C1O', '.', 'CC(C)O']",['CC(C)O'],"['CO', 'O=CO', 'CC1OCCC(O)C1O', '.', 'CC(C)O']",62.5,23.5,30,13.3,0.143,127.0
alginate,O=C(O)C1OC(C)C(O)C(O)C1O(C).O=C(O)C1OC(C)C(O)C(O)C1O(C),ipa,CC(C)O,37.37,,,50.0,,,,,"['CO', 'O=CO', 'CC1OCCC(O)C1O', '.', 'CC(C)O']",['CC(C)O'],"['CO', 'O=CO', 'CC1OCCC(O)C1O', '.', 'CC(C)O']",50.0,23.5,30,13.3,0.177,25.0
chitosan,NC2C(O)C(OC1OC(CO)C(O(C))C(O)C1N)C(CO)OC2(C),ipa,CC(C)O,55.1,,,15.0,,,,,"['CO', 'O', 'CO', 'CC1OCCC(O)C1N', 'NC1COCCC1O', '.', 'CC(C)O']",['CC(C)O'],"['CO', 'O', 'CO', 'CC1OCCC(O)C1N', 'NC1COCCC1O', '.', 'CC(C)O']",40.0,23.5,30,13.3,0.0649,66.115702
chitosan,NC2C(O)C(OC1OC(CO)C(O(C))C(O)C1N)C(CO)OC2(C),ipa,CC(C)O,55.1,,,10.0,,,,,"['CO', 'O', 'CO', 'CC1OCCC(O)C1N', 'NC1COCCC1O', '.', 'CC(C)O']",['CC(C)O'],"['CO', 'O', 'CO', 'CC1OCCC(O)C1N', 'NC1COCCC1O', '.', 'CC(C)O']",40.0,23.5,30,13.3,0.0314,540.201005
chitosan,NC2C(O)C(OC1OC(CO)C(O(C))C(O)C1N)C(CO)OC2(C),ipa,CC(C)O,55.1,,,25.0,,,,,"['CO', 'O', 'CO', 'CC1OCCC(O)C1N', 'NC1COCCC1O', '.', 'CC(C)O']",['CC(C)O'],"['CO', 'O', 'CO', 'CC1OCCC(O)C1N', 'NC1COCCC1O', '.', 'CC(C)O']",40.0,23.5,30,13.3,0.1031,50.251256
chitosan,NC2C(O)C(OC1OC(CO)C(O(C))C(O)C1N)C(CO)OC2(C),ipa,CC(C)O,55.1,,,40.0,,,,,"['CO', 'O', 'CO', 'CC1OCCC(O)C1N', 'NC1COCCC1O', '.', 'CC(C)O']",['CC(C)O'],"['CO', 'O', 'CO', 'CC1OCCC(O)C1N', 'NC1COCCC1O', '.', 'CC(C)O']",40.0,23.5,30,13.3,0.2152,32.482599
alginate,O=C(O)C1OC(C)C(O)C(O)C1O(C).O=C(O)C1OC(C)C(O)C(O)C1O(C),ethanol,CCO,37.37,,,10.0,,,,,"['CO', 'O=CO', 'CC1OCCC(O)C1O', '.', 'CCO']",['CCO'],"['CO', 'O=CO', 'CC1OCCC(O)C1O', '.', 'CCO']",1.8,26.5,45,1.0,0.2783,562.790698
pva,C(C)C(C)(O),ethanol,CCO,74.0,,,10.0,,,,,"['CCC(C)O', '.', 'CCO']",['CCO'],"['CCC(C)O', '.', 'CCO']",1.8,26.5,45,1.0,0.4028,235.348837
pva,C(C)C(C)(O),ipa,CC(C)O,74.0,,,10.0,,,,,"['CCC(C)O', '.', 'CC(C)O']",['CC(C)O'],"['CCC(C)O', '.', 'CC(C)O']",1.8,23.5,45,1.0,0.4788,511.627907
ptmsp,C/C(C)=C(C)/[Si](C)(C)C,n-butanol,CCCCO,100.0,,,97.0,,,,,"['CCC', 'CC[Si](C)(C)C', '.', 'CCCCO']",['CCCCO'],"['CCC', 'CC[Si](C)(C)C', '.', 'CCCCO']",20.0,23.1,25,2.7,0.1596,0.012444
ptmsp,C/C(C)=C(C)/[Si](C)(C)C,n-butanol,CCCCO,100.0,,,95.0,,,,,"['CCC', 'CC[Si](C)(C)C', '.', 'CCCCO']",['CCCCO'],"['CCC', 'CC[Si](C)(C)C', '.', 'CCCCO']",20.0,23.1,25,2.7,0.3646,0.011864
ptmsp,C/C(C)=C(C)/[Si](C)(C)C,n-butanol,CCCCO,100.0,,,94.5,,,,,"['CCC', 'CC[Si](C)(C)C', '.', 'CCCCO']",['CCCCO'],"['CCC', 'CC[Si](C)(C)C', '.', 'CCCCO']",20.0,23.1,25,2.7,0.4348,0.011667
ptmsp,C/C(C)=C(C)/[Si](C)(C)C,n-butanol,CCCCO,100.0,,,98.5,,,,,"['CCC', 'CC[Si](C)(C)C', '.', 'CCCCO']",['CCCCO'],"['CCC', 'CC[Si](C)(C)C', '.', 'CCCCO']",22.0,23.1,70,2.7,1.03,0.014286
torlon,O=C(Nc2ccc(Oc1ccc(C)cc1)cc2)c4ccc3c(=O)n(C)c(=O)c3c4.O=C(Nc1cccc(C)c1)c3ccc2c(=O)n(C)c(=O)c2c3,n-butanol,CCCCO,87.5,,,15.0,,,,,"['Cc1ccccc1', 'O', 'N', 'Cc1ccccc1', 'c1ccccc1', 'C=O', 'CN1C(=O)c2ccccc2C1=O', '.', 'CCCCO']",['CCCCO'],"['Cc1ccccc1', 'O', 'N', 'Cc1ccccc1', 'c1ccccc1', 'C=O', 'CN1C(=O)c2ccccc2C1=O', '.', 'CCCCO']",50.0,23.1,60,1.0,0.0113,5661.0
peba,C(C)=O.COC(C)=O.COC.CNCCCCCCCCCCCC(C)=O.CCCCCOC,n-butanol,CCCCO,89.0,,,99.8369153,,,,,"['CO', 'CC=O', '.', 'CCCCO']",['CCCCO'],"['CO', 'CC=O', '.', 'CCCCO']",30.0,23.1,60,1.0,0.4473,0.03162
peba,C(C)=O.COC(C)=O.COC.CNCCCCCCCCCCCC(C)=O.CCCCCOC,n-butanol,CCCCO,89.0,,,99.988622,,,,,"['CO', 'CC=O', '.', 'CCCCO']",['CCCCO'],"['CO', 'CC=O', '.', 'CCCCO']",30.0,23.1,50,1.0,0.1839,0.035299
peba,C(C)=O.COC(C)=O.COC.CNCCCCCCCCCCCC(C)=O.CCCCCOC,n-butanol,CCCCO,89.0,,,99.84197219,,,,,"['CO', 'CC=O', '.', 'CCCCO']",['CCCCO'],"['CO', 'CC=O', '.', 'CCCCO']",30.0,23.1,50,1.0,0.3445,0.040089
peba,C(C)=O.COC(C)=O.COC.CNCCCCCCCCCCCC(C)=O.CCCCCOC,n-butanol,CCCCO,89.0,,,99.70543616,,,,,"['CO', 'CC=O', '.', 'CCCCO']",['CCCCO'],"['CO', 'CC=O', '.', 'CCCCO']",30.0,23.1,40,1.0,0.2074,0.046193
peba,C(C)=O.COC(C)=O.COC.CNCCCCCCCCCCCC(C)=O.CCCCCOC,n-butanol,CCCCO,89.0,,,99.93426043,,,,,"['CO', 'CC=O', '.', 'CCCCO']",['CCCCO'],"['CO', 'CC=O', '.', 'CCCCO']",30.0,23.1,40,1.0,0.2044,0.049017
peba,C(C)=O.COC(C)=O.COC.CNCCCCCCCCCCCC(C)=O.CCCCCOC,n-butanol,CCCCO,89.0,,,99.63211125,,,,,"['CO', 'CC=O', '.', 'CCCCO']",['CCCCO'],"['CO', 'CC=O', '.', 'CCCCO']",30.0,23.1,29,1.0,0.1562,0.07961
peba,C(C)=O.COC(C)=O.COC.CNCCCCCCCCCCCC(C)=O.CCCCCOC,n-butanol,CCCCO,89.0,,,99.70417193,,,,,"['CO', 'CC=O', '.', 'CCCCO']",['CCCCO'],"['CO', 'CC=O', '.', 'CCCCO']",30.0,23.1,29,1.0,0.1348,0.081341
peba,C(C)=O.COC(C)=O.COC.CNCCCCCCCCCCCC(C)=O.CCCCCOC,n-butanol,CCCCO,89.0,,,99.5,,,,,"['CO', 'CC=O', '.', 'CCCCO']",['CCCCO'],"['CO', 'CC=O', '.', 'CCCCO']",30.0,23.1,35,3.2,0.1576,0.057177
peba,C(C)=O.COC(C)=O.COC.CNCCCCCCCCCCCC(C)=O.CCCCCOC,n-butanol,CCCCO,89.0,,,97.0,,,,,"['CO', 'CC=O', '.', 'CCCCO']",['CCCCO'],"['CO', 'CC=O', '.', 'CCCCO']",3.5,23.1,40,3.0,3.181818182,0.049577
peba,C(C)=O.COC(C)=O.COC.CNCCCCCCCCCCCC(C)=O.CCCCCOC,n-butanol,CCCCO,89.0,,,99.0,,,,,"['CO', 'CC=O', '.', 'CCCCO']",['CCCCO'],"['CO', 'CC=O', '.', 'CCCCO']",2.5,23.1,40,3.0,2.877094972,0.056825
peba,C(C)=O.COC(C)=O.COC.CNCCCCCCCCCCCC(C)=O.CCCCCOC,n-butanol,CCCCO,89.0,,,99.0,,,,,"['CO', 'CC=O', '.', 'CCCCO']",['CCCCO'],"['CO', 'CC=O', '.', 'CCCCO']",3.5,23.1,25,3.0,0.885714286,0.066038
pdms,[Si](C)(C)(C)O(C),n-butanol,CCCCO,108.08219,,,99.0,,,,,"['CO[Si](C)(C)C', '.', 'CCCCO']",['CCCCO'],"['CO[Si](C)(C)C', '.', 'CCCCO']",10.0,23.1,40,2.1,0.946,0.022523
pdms,[Si](C)(C)(C)O(C),n-butanol,CCCCO,108.08219,,,99.0,,,,,"['CO[Si](C)(C)C', '.', 'CCCCO']",['CCCCO'],"['CO[Si](C)(C)C', '.', 'CCCCO']",5.551854971,23.1,40,4.0,0.610042672,0.022432
pdms,[Si](C)(C)(C)O(C),n-butanol,CCCCO,108.08219,,,99.69,,,,,"['CO[Si](C)(C)C', '.', 'CCCCO']",['CCCCO'],"['CO[Si](C)(C)C', '.', 'CCCCO']",4.405094191,23.1,40,4.0,0.644444444,0.026829
pdms,[Si](C)(C)(C)O(C),n-butanol,CCCCO,110.0,,,99.0,,,,,"['CO[Si](C)(C)C', '.', 'CCCCO']",['CCCCO'],"['CO[Si](C)(C)C', '.', 'CCCCO']",13.3,23.1,40,1.0,0.282,0.025907
pva,C(C)C(C)(O),methanol,CO,74.0,,,15.0,,,,,"['CCC(C)O', '.', 'CO']",['CO'],"['CCC(C)O', '.', 'CO']",3.0,29.6,60,3.0,0.270805067,30.434783
pva,C(C)C(C)(O),methanol,CO,74.0,,,1.0,,,,,"['CCC(C)O', '.', 'CO']",['CO'],"['CCC(C)O', '.', 'CO']",3.0,29.6,50,3.0,0.271142921,1176.811594
pva,C(C)C(C)(O),methanol,CO,74.0,,,20.0,,,,,"['CCC(C)O', '.', 'CO']",['CO'],"['CCC(C)O', '.', 'CO']",3.0,29.6,50,3.0,0.330898221,20.289855
pva,C(C)C(C)(O),methanol,CO,74.0,,,20.0,,,,,"['CCC(C)O', '.', 'CO']",['CO'],"['CCC(C)O', '.', 'CO']",3.0,29.6,60,3.0,0.332481466,20.289855
pva,C(C)C(C)(O),methanol,CO,74.0,,,5.0,,,,,"['CCC(C)O', '.', 'CO']",['CO'],"['CCC(C)O', '.', 'CO']",3.0,29.6,60,3.0,0.475679607,547.826087
pva,C(C)C(C)(O),methanol,CO,74.0,,,3.0,,,,,"['CCC(C)O', '.', 'CO']",['CO'],"['CCC(C)O', '.', 'CO']",3.0,29.6,70,3.0,0.5798413,913.043478
pdms,[Si](C)(C)(C)O(C),ipa,CC(C)O,108.08219,,,93.0,,,,,"['CO[Si](C)(C)C', '.', 'CC(C)O']",['CC(C)O'],"['CO[Si](C)(C)C', '.', 'CC(C)O']",25.0,23.5,30,1.0,0.429032258,0.086667
pdms,[Si](C)(C)(C)O(C),ipa,CC(C)O,108.08219,,,91.0,,,,,"['CO[Si](C)(C)C', '.', 'CC(C)O']",['CC(C)O'],"['CO[Si](C)(C)C', '.', 'CC(C)O']",25.0,23.5,30,1.0,0.609677419,0.096296
pdms,[Si](C)(C)(C)O(C),methanol,CO,108.08219,,,95.0,,,,,"['CO[Si](C)(C)C', '.', 'CO']",['CO'],"['CO[Si](C)(C)C', '.', 'CO']",1.5,29.6,20,10.0,0.441142857,0.132593
pdms,[Si](C)(C)(C)O(C),ethanol,CCO,108.08219,,,95.0,,,,,"['CO[Si](C)(C)C', '.', 'CCO']",['CCO'],"['CO[Si](C)(C)C', '.', 'CCO']",1.5,26.5,20,10.0,0.441142857,0.105294
ppms,C[Si](C)(O(C))c1ccccc1,ethanol,CCO,121.2,,,95.0,,,,,"['CO[Si](C)(C)c1ccccc1', '.', 'CCO']",['CCO'],"['CO[Si](C)(C)c1ccccc1', '.', 'CCO']",1.5,26.5,30,10.0,0.893714286,0.162727
pdms,[Si](C)(C)(C)O(C),ethanol,CCO,108.08219,,,95.0,,,,,"['CO[Si](C)(C)C', '.', 'CCO']",['CCO'],"['CO[Si](C)(C)C', '.', 'CCO']",1.5,26.5,40,10.0,1.140571429,0.108485
pdms,[Si](C)(C)(C)O(C),methanol,CO,108.08219,,,99.7,,,,,"['CO[Si](C)(C)C', '.', 'CO']",['CO'],"['CO[Si](C)(C)C', '.', 'CO']",8.0,29.6,30,9.0,0.366492147,0.130435
pdms,[Si](C)(C)(C)O(C),methanol,CO,108.08219,,,99.0,,,,,"['CO[Si](C)(C)C', '.', 'CO']",['CO'],"['CO[Si](C)(C)C', '.', 'CO']",8.0,29.6,30,9.0,0.418848168,0.295775
chitosan,NC2C(O)C(OC1OC(CO)C(O(C))C(O)C1N)C(CO)OC2(C),methanol,CO,55.1,,,9.0,,,,,"['CO', 'O', 'CO', 'CC1OCCC(O)C1N', 'NC1COCCC1O', '.', 'CO']",['CO'],"['CO', 'O', 'CO', 'CC1OCCC(O)C1N', 'NC1COCCC1O', '.', 'CO']",26.2,29.6,35,2.5,0.307009346,3.985646
chitosan,NC2C(O)C(OC1OC(CO)C(O(C))C(O)C1N)C(CO)OC2(C),methanol,CO,55.1,,,10.31,,,,,"['CO', 'O', 'CO', 'CC1OCCC(O)C1N', 'NC1COCCC1O', '.', 'CO']",['CO'],"['CO', 'O', 'CO', 'CC1OCCC(O)C1N', 'NC1COCCC1O', '.', 'CO']",28.4,29.6,45,2.5,0.401593625,4.301595
pva,C(C)C(C)(O),ethylene_glycol,OCCO,74.0,,,10.0,,,,,"['CCC(C)O', '.', 'OCCO']",['OCCO'],"['CCC(C)O', '.', 'OCCO']",10.0,32.9,70,6.7,1.093023256,1001.416431
pva,C(C)C(C)(O),ethylene_glycol,OCCO,74.0,,,20.0,,,,,"['CCC(C)O', '.', 'OCCO']",['OCCO'],"['CCC(C)O', '.', 'OCCO']",10.0,32.9,60,6.7,1.221052632,2500.0
pva,C(C)C(C)(O),ethylene_glycol,OCCO,74.0,,,10.0,,,,,"['CCC(C)O', '.', 'OCCO']",['OCCO'],"['CCC(C)O', '.', 'OCCO']",10.0,32.9,75,6.7,1.263157895,593.75
pva,C(C)C(C)(O),ethylene_glycol,OCCO,74.0,,,20.0,,,,,"['CCC(C)O', '.', 'OCCO']",['OCCO'],"['CCC(C)O', '.', 'OCCO']",10.0,32.9,75,6.7,2.558139535,1219.546742
pva,C(C)C(C)(O),ethylene_glycol,OCCO,74.0,,,40.0,,,,,"['CCC(C)O', '.', 'OCCO']",['OCCO'],"['CCC(C)O', '.', 'OCCO']",10.0,32.9,70,6.7,5.221052632,703.125
pva,C(C)C(C)(O),ethylene_glycol,OCCO,50.22,,,20.0,,,,,"['CCC(C)O', '.', 'OCCO']",['OCCO'],"['CCC(C)O', '.', 'OCCO']",15.0,32.9,70,6.7,0.212244898,934.285707
pva,C(C)C(C)(O),ethylene_glycol,OCCO,74.0,,,10.0,,,,,"['CCC(C)O', '.', 'OCCO']",['OCCO'],"['CCC(C)O', '.', 'OCCO']",100.0,32.9,70,6.7,0.422619048,1063.333333
pim-1,CC6(C)CC4(CC(C)(C)c3cc2oc1c(C#N)c(C)c(C)c(C#N)c1oc2cc34)c5cc(O(C))c(O(C))cc56,ethylene_glycol,OCCO,108.2,,,20.0,,,,,"['CO', 'Cc1c(C)c(C#N)c2c(c1C#N)Oc1cc3c(cc1O2)C1(CC(C)(C)c2ccccc21)CC3(C)C', '.', 'OCCO']",['OCCO'],"['CO', 'Cc1c(C)c(C#N)c2c(c1C#N)Oc1cc3c(cc1O2)C1(CC(C)(C)c2ccccc21)CC3(C)C', '.', 'OCCO']",45.0,32.9,30,10.0,0.162637362,59.216867
pim-1,CC6(C)CC4(CC(C)(C)c3cc2oc1c(C#N)c(C)c(C)c(C#N)c1oc2cc34)c5cc(O(C))c(O(C))cc56,ethylene_glycol,OCCO,87.8,,,6.56,,,,,"['CO', 'Cc1c(C)c(C#N)c2c(c1C#N)Oc1cc3c(cc1O2)C1(CC(C)(C)c2ccccc21)CC3(C)C', '.', 'OCCO']",['OCCO'],"['CO', 'Cc1c(C)c(C#N)c2c(c1C#N)Oc1cc3c(cc1O2)C1(CC(C)(C)c2ccccc21)CC3(C)C', '.', 'OCCO']",30.0,32.9,30,10.0,0.027333333,36.42
pim-1,CC6(C)CC4(CC(C)(C)c3cc2oc1c(C#N)c(C)c(C)c(C#N)c1oc2cc34)c5cc(O(C))c(O(C))cc56,ethylene_glycol,OCCO,87.8,,,18.5,,,,,"['CO', 'Cc1c(C)c(C#N)c2c(c1C#N)Oc1cc3c(cc1O2)C1(CC(C)(C)c2ccccc21)CC3(C)C', '.', 'OCCO']",['OCCO'],"['CO', 'Cc1c(C)c(C#N)c2c(c1C#N)Oc1cc3c(cc1O2)C1(CC(C)(C)c2ccccc21)CC3(C)C', '.', 'OCCO']",30.0,32.9,30,10.0,0.095666667,42.93
chitosan,NC2C(O)C(OC1OC(CO)C(O(C))C(O)C1N)C(CO)OC2(C),ethylene_glycol,OCCO,55.1,,,8.0,,,,,"['CO', 'O', 'CO', 'CC1OCCC(O)C1N', 'NC1COCCC1O', '.', 'OCCO']",['OCCO'],"['CO', 'O', 'CO', 'CC1OCCC(O)C1N', 'NC1COCCC1O', '.', 'OCCO']",160.0,32.9,30,0.33,0.150769231,191.025641
chitosan,NC2C(O)C(OC1OC(CO)C(O(C))C(O)C1N)C(CO)OC2(C),ethylene_glycol,OCCO,55.1,,,8.0,,,,,"['CO', 'O', 'CO', 'CC1OCCC(O)C1N', 'NC1COCCC1O', '.', 'OCCO']",['OCCO'],"['CO', 'O', 'CO', 'CC1OCCC(O)C1N', 'NC1COCCC1O', '.', 'OCCO']",50.0,32.9,30,12.0,0.172680412,127.731959
chitosan,NC2C(O)C(OC1OC(CO)C(O(C))C(O)C1N)C(CO)OC2(C),ethylene_glycol,OCCO,55.1,,,8.0,,,,,"['CO', 'O', 'CO', 'CC1OCCC(O)C1N', 'NC1COCCC1O', '.', 'OCCO']",['OCCO'],"['CO', 'O', 'CO', 'CC1OCCC(O)C1N', 'NC1COCCC1O', '.', 'OCCO']",50.0,32.9,30,0.33,0.451030928,62.061856
chitosan,NC2C(O)C(OC1OC(CO)C(O(C))C(O)C1N)C(CO)OC2(C),ethylene_glycol,OCCO,55.1,,,20.0,,,,,"['CO', 'O', 'CO', 'CC1OCCC(O)C1N', 'NC1COCCC1O', '.', 'OCCO']",['OCCO'],"['CO', 'O', 'CO', 'CC1OCCC(O)C1N', 'NC1COCCC1O', '.', 'OCCO']",30.0,32.9,25,3.0,0.223076923,129.932719
chitosan,NC2C(O)C(OC1OC(CO)C(O(C))C(O)C1N)C(CO)OC2(C),ethylene_glycol,OCCO,55.1,,,30.0,,,,,"['CO', 'O', 'CO', 'CC1OCCC(O)C1N', 'NC1COCCC1O', '.', 'OCCO']",['OCCO'],"['CO', 'O', 'CO', 'CC1OCCC(O)C1N', 'NC1COCCC1O', '.', 'OCCO']",10.0,32.9,80,6.7,1.762318841,198.333333
alginate,O=C(O)C1OC(C)C(O)C(O)C1O(C).O=C(O)C1OC(C)C(O)C(O)C1O(C),acetic_acid,CC(=O)O,37.37,,,10.0,,,,,"['CO', 'O=CO', 'CC1OCCC(O)C1O', '.', 'CC(=O)O']",['CC(=O)O'],"['CO', 'O=CO', 'CC1OCCC(O)C1O', '.', 'CC(=O)O']",5.0,21.4,50,1.5,0.283673469,78.038281
alginate,O=C(O)C1OC(C)C(O)C(O)C1O(C).O=C(O)C1OC(C)C(O)C(O)C1O(C),acetic_acid,CC(=O)O,37.37,,,10.0,,,,,"['CO', 'O=CO', 'CC1OCCC(O)C1O', '.', 'CC(=O)O']",['CC(=O)O'],"['CO', 'O=CO', 'CC1OCCC(O)C1O', '.', 'CC(=O)O']",50.0,21.4,40,13.3,0.154,15.0
pva,C(C)C(C)(O),acetic_acid,CC(=O)O,74.0,,,80.0,,,,,"['CCC(C)O', '.', 'CC(=O)O']",['CC(=O)O'],"['CCC(C)O', '.', 'CC(=O)O']",50.0,21.4,45,1.5,0.7859,17.775229
ppsu,O=S(=O)(c1ccc(C)cc1)c4ccc(Oc3ccc(c2ccc(O(C))cc2)cc3)cc4,acetic_acid,CC(=O)O,92.2,,,15.0,,,,,"['Cc1ccc(S(=O)(=O)c2ccccc2)cc1', 'CO', 'O', 'c1ccccc1', '.', 'CC(=O)O']",['CC(=O)O'],"['Cc1ccc(S(=O)(=O)c2ccccc2)cc1', 'CO', 'O', 'c1ccccc1', '.', 'CC(=O)O']",0.549,21.4,50,2.5,0.69,3.3
ppsu,O=S(=O)(c1ccc(C)cc1)c4ccc(Oc3ccc(c2ccc(O(C))cc2)cc3)cc4,acetic_acid,CC(=O)O,92.2,,,20.0,,,,,"['Cc1ccc(S(=O)(=O)c2ccccc2)cc1', 'CO', 'O', 'c1ccccc1', '.', 'CC(=O)O']",['CC(=O)O'],"['Cc1ccc(S(=O)(=O)c2ccccc2)cc1', 'CO', 'O', 'c1ccccc1', '.', 'CC(=O)O']",0.549,21.4,50,2.5,0.71,3.7
ppsu,O=S(=O)(c1ccc(C)cc1)c4ccc(Oc3ccc(c2ccc(O(C))cc2)cc3)cc4,acetic_acid,CC(=O)O,92.2,,,10.0,,,,,"['Cc1ccc(S(=O)(=O)c2ccccc2)cc1', 'CO', 'O', 'c1ccccc1', '.', 'CC(=O)O']",['CC(=O)O'],"['Cc1ccc(S(=O)(=O)c2ccccc2)cc1', 'CO', 'O', 'c1ccccc1', '.', 'CC(=O)O']",0.227,21.4,50,2.5,0.25,8.2
pdms,[Si](C)(C)(C)O(C),acetic_acid,CC(=O)O,108.08219,,,94.25,,,,,"['CO[Si](C)(C)C', '.', 'CC(=O)O']",['CC(=O)O'],"['CO[Si](C)(C)C', '.', 'CC(=O)O']",95.0,21.4,25,0.17,0.039485981,0.645252