Polymer,Polymer_SMILES,Solvent,Solvent_SMILES,Contact_angle,Thickness,Solvent_solubility_parameter,xw_wt_percent,Temperature,Permeate_pressure,J_total_flux,a_separation_factor,Polymer_BRICS,Solvent_BRICS,PS_pair_BRICS,Thickness_um,Solvent_solubility_parameter_Mpa_sqrt,Temp_C,Permeate_pressure_mbar,J_Total_flux_kg_m_2h_1,a_Separation_factor_wo
pva,C(C)C(C)(O),ethylene_glycol,OCCO,50.22,,,60.0,,,,,"['CCC(C)O', '.', 'OCCO']",['OCCO'],"['CCC(C)O', '.', 'OCCO']",15.0,32.9,70,6.7,0.989361702,2242.990654
pva,C(C)C(C)(O),ethylene_glycol,OCCO,50.22,,,80.0,,,,,"['CCC(C)O', '.', 'OCCO']",['OCCO'],"['CCC(C)O', '.', 'OCCO']",15.0,32.9,70,6.7,1.382978723,5495.327103
pva,C(C)C(C)(O),ethylene_glycol,OCCO,74.0,,,20.0,,,,,"['CCC(C)O', '.', 'OCCO']",['OCCO'],"['CCC(C)O', '.', 'OCCO']",100.0,32.9,70,6.7,0.833333333,1200.0
pva,C(C)C(C)(O),ethylene_glycol,OCCO,74.0,,,30.0,,,,,"['CCC(C)O', '.', 'OCCO']",['OCCO'],"['CCC(C)O', '.', 'OCCO']",100.0,32.9,70,6.7,1.244047619,780.0
pva,C(C)C(C)(O),ethylene_glycol,OCCO,74.0,,,40.0,,,,,"['CCC(C)O', '.', 'OCCO']",['OCCO'],"['CCC(C)O', '.', 'OCCO']",100.0,32.9,70,6.7,1.398809524,706.666667
ppo,Cc1cc(C)cc(C)c1O(C),ethylene_glycol,OCCO,89.0,,,5.0,,,,,"['CO', 'Cc1cc(C)cc(C)c1', '.', 'OCCO']",['OCCO'],"['CO', 'Cc1cc(C)cc(C)c1', '.', 'OCCO']",40.0,32.9,50,0.01,0.011617647,480.0
ppo,Cc1cc(C)cc(C)c1O(C),ethylene_glycol,OCCO,89.0,,,7.0,,,,,"['CO', 'Cc1cc(C)cc(C)c1', '.', 'OCCO']",['OCCO'],"['CO', 'Cc1cc(C)cc(C)c1', '.', 'OCCO']",40.0,32.9,50,0.01,0.012720588,440.0
ppo,Cc1cc(C)cc(C)c1O(C),ethylene_glycol,OCCO,89.0,,,10.0,,,,,"['CO', 'Cc1cc(C)cc(C)c1', '.', 'OCCO']",['OCCO'],"['CO', 'Cc1cc(C)cc(C)c1', '.', 'OCCO']",40.0,32.9,50,0.01,0.015588235,400.0
ppo,Cc1cc(C)cc(C)c1O(C),ethylene_glycol,OCCO,89.0,,,12.0,,,,,"['CO', 'Cc1cc(C)cc(C)c1', '.', 'OCCO']",['OCCO'],"['CO', 'Cc1cc(C)cc(C)c1', '.', 'OCCO']",40.0,32.9,50,0.01,0.016176471,293.333333
pim-1,CC6(C)CC4(CC(C)(C)c3cc2oc1c(C#N)c(C)c(C)c(C#N)c1oc2cc34)c5cc(O(C))c(O(C))cc56,ethylene_glycol,OCCO,87.8,,,18.5,,,,,"['CO', 'Cc1c(C)c(C#N)c2c(c1C#N)Oc1cc3c(cc1O2)C1(CC(C)(C)c2ccccc21)CC3(C)C', '.', 'OCCO']",['OCCO'],"['CO', 'Cc1c(C)c(C#N)c2c(c1C#N)Oc1cc3c(cc1O2)C1(CC(C)(C)c2ccccc21)CC3(C)C', '.', 'OCCO']",30.0,32.9,20,10.0,0.041666667,18.75
pim-1,CC6(C)CC4(CC(C)(C)c3cc2oc1c(C#N)c(C)c(C)c(C#N)c1oc2cc34)c5cc(O(C))c(O(C))cc56,ethylene_glycol,OCCO,87.8,,,10.33,,,,,"['CO', 'Cc1c(C)c(C#N)c2c(c1C#N)Oc1cc3c(cc1O2)C1(CC(C)(C)c2ccccc21)CC3(C)C', '.', 'OCCO']",['OCCO'],"['CO', 'Cc1c(C)c(C#N)c2c(c1C#N)Oc1cc3c(cc1O2)C1(CC(C)(C)c2ccccc21)CC3(C)C', '.', 'OCCO']",30.0,32.9,30,10.0,0.050666667,39.11
pim-1,CC6(C)CC4(CC(C)(C)c3cc2oc1c(C#N)c(C)c(C)c(C#N)c1oc2cc34)c5cc(O(C))c(O(C))cc56,ethylene_glycol,OCCO,87.8,,,14.04,,,,,"['CO', 'Cc1c(C)c(C#N)c2c(c1C#N)Oc1cc3c(cc1O2)C1(CC(C)(C)c2ccccc21)CC3(C)C', '.', 'OCCO']",['OCCO'],"['CO', 'Cc1c(C)c(C#N)c2c(c1C#N)Oc1cc3c(cc1O2)C1(CC(C)(C)c2ccccc21)CC3(C)C', '.', 'OCCO']",30.0,32.9,30,10.0,0.075,40.09
pim-1,CC6(C)CC4(CC(C)(C)c3cc2oc1c(C#N)c(C)c(C)c(C#N)c1oc2cc34)c5cc(O(C))c(O(C))cc56,ethylene_glycol,OCCO,87.8,,,18.5,,,,,"['CO', 'Cc1c(C)c(C#N)c2c(c1C#N)Oc1cc3c(cc1O2)C1(CC(C)(C)c2ccccc21)CC3(C)C', '.', 'OCCO']",['OCCO'],"['CO', 'Cc1c(C)c(C#N)c2c(c1C#N)Oc1cc3c(cc1O2)C1(CC(C)(C)c2ccccc21)CC3(C)C', '.', 'OCCO']",30.0,32.9,40,10.0,0.117666667,47.34
pim-1,CC6(C)CC4(CC(C)(C)c3cc2oc1c(C#N)c(C)c(C)c(C#N)c1oc2cc34)c5cc(O(C))c(O(C))cc56,ethylene_glycol,OCCO,87.8,,,22.66,,,,,"['CO', 'Cc1c(C)c(C#N)c2c(c1C#N)Oc1cc3c(cc1O2)C1(CC(C)(C)c2ccccc21)CC3(C)C', '.', 'OCCO']",['OCCO'],"['CO', 'Cc1c(C)c(C#N)c2c(c1C#N)Oc1cc3c(cc1O2)C1(CC(C)(C)c2ccccc21)CC3(C)C', '.', 'OCCO']",30.0,32.9,30,10.0,0.127333333,51.13
pim-1,CC6(C)CC4(CC(C)(C)c3cc2oc1c(C#N)c(C)c(C)c(C#N)c1oc2cc34)c5cc(O(C))c(O(C))cc56,ethylene_glycol,OCCO,87.8,,,18.5,,,,,"['CO', 'Cc1c(C)c(C#N)c2c(c1C#N)Oc1cc3c(cc1O2)C1(CC(C)(C)c2ccccc21)CC3(C)C', '.', 'OCCO']",['OCCO'],"['CO', 'Cc1c(C)c(C#N)c2c(c1C#N)Oc1cc3c(cc1O2)C1(CC(C)(C)c2ccccc21)CC3(C)C', '.', 'OCCO']",30.0,32.9,50,10.0,0.230333333,64.47
chitosan,NC2C(O)C(OC1OC(CO)C(O(C))C(O)C1N)C(CO)OC2(C),ethylene_glycol,OCCO,55.1,,,8.0,,,,,"['CO', 'O', 'CO', 'CC1OCCC(O)C1N', 'NC1COCCC1O', '.', 'OCCO']",['OCCO'],"['CO', 'O', 'CO', 'CC1OCCC(O)C1N', 'NC1COCCC1O', '.', 'OCCO']",100.0,32.9,30,0.33,0.307692308,103.846154
chitosan,NC2C(O)C(OC1OC(CO)C(O(C))C(O)C1N)C(CO)OC2(C),ethylene_glycol,OCCO,55.1,,,8.0,,,,,"['CO', 'O', 'CO', 'CC1OCCC(O)C1N', 'NC1COCCC1O', '.', 'OCCO']",['OCCO'],"['CO', 'O', 'CO', 'CC1OCCC(O)C1N', 'NC1COCCC1O', '.', 'OCCO']",60.0,32.9,30,0.33,0.449230769,62.820513
chitosan,NC2C(O)C(OC1OC(CO)C(O(C))C(O)C1N)C(CO)OC2(C),ethylene_glycol,OCCO,55.1,,,8.0,,,,,"['CO', 'O', 'CO', 'CC1OCCC(O)C1N', 'NC1COCCC1O', '.', 'OCCO']",['OCCO'],"['CO', 'O', 'CO', 'CC1OCCC(O)C1N', 'NC1COCCC1O', '.', 'OCCO']",50.0,32.9,30,6.7,0.298969072,86.597938
chitosan,NC2C(O)C(OC1OC(CO)C(O(C))C(O)C1N)C(CO)OC2(C),ethylene_glycol,OCCO,55.1,,,8.0,,,,,"['CO', 'O', 'CO', 'CC1OCCC(O)C1N', 'NC1COCCC1O', '.', 'OCCO']",['OCCO'],"['CO', 'O', 'CO', 'CC1OCCC(O)C1N', 'NC1COCCC1O', '.', 'OCCO']",50.0,32.9,30,2.6,0.371134021,73.608247
chitosan,NC2C(O)C(OC1OC(CO)C(O(C))C(O)C1N)C(CO)OC2(C),ethylene_glycol,OCCO,55.1,,,3.56,,,,,"['CO', 'O', 'CO', 'CC1OCCC(O)C1N', 'NC1COCCC1O', '.', 'OCCO']",['OCCO'],"['CO', 'O', 'CO', 'CC1OCCC(O)C1N', 'NC1COCCC1O', '.', 'OCCO']",50.0,32.9,30,0.13,0.378,234.26
chitosan,NC2C(O)C(OC1OC(CO)C(O(C))C(O)C1N)C(CO)OC2(C),ethylene_glycol,OCCO,55.1,,,7.03,,,,,"['CO', 'O', 'CO', 'CC1OCCC(O)C1N', 'NC1COCCC1O', '.', 'OCCO']",['OCCO'],"['CO', 'O', 'CO', 'CC1OCCC(O)C1N', 'NC1COCCC1O', '.', 'OCCO']",50.0,32.9,30,0.13,0.45,61.674
chitosan,NC2C(O)C(OC1OC(CO)C(O(C))C(O)C1N)C(CO)OC2(C),ethylene_glycol,OCCO,55.1,,,12.32,,,,,"['CO', 'O', 'CO', 'CC1OCCC(O)C1N', 'NC1COCCC1O', '.', 'OCCO']",['OCCO'],"['CO', 'O', 'CO', 'CC1OCCC(O)C1N', 'NC1COCCC1O', '.', 'OCCO']",50.0,32.9,30,0.13,0.567,28.318
chitosan,NC2C(O)C(OC1OC(CO)C(O(C))C(O)C1N)C(CO)OC2(C),ethylene_glycol,OCCO,55.1,,,24.47,,,,,"['CO', 'O', 'CO', 'CC1OCCC(O)C1N', 'NC1COCCC1O', '.', 'OCCO']",['OCCO'],"['CO', 'O', 'CO', 'CC1OCCC(O)C1N', 'NC1COCCC1O', '.', 'OCCO']",50.0,32.9,30,0.13,0.702,8.077
chitosan,NC2C(O)C(OC1OC(CO)C(O(C))C(O)C1N)C(CO)OC2(C),ethylene_glycol,OCCO,55.1,,,35.63,,,,,"['CO', 'O', 'CO', 'CC1OCCC(O)C1N', 'NC1COCCC1O', '.', 'OCCO']",['OCCO'],"['CO', 'O', 'CO', 'CC1OCCC(O)C1N', 'NC1COCCC1O', '.', 'OCCO']",50.0,32.9,30,0.13,0.819,4.18
chitosan,NC2C(O)C(OC1OC(CO)C(O(C))C(O)C1N)C(CO)OC2(C),ethylene_glycol,OCCO,55.1,,,8.0,,,,,"['CO', 'O', 'CO', 'CC1OCCC(O)C1N', 'NC1COCCC1O', '.', 'OCCO']",['OCCO'],"['CO', 'O', 'CO', 'CC1OCCC(O)C1N', 'NC1COCCC1O', '.', 'OCCO']",30.0,32.9,30,0.33,0.547692308,56.410256
chitosan,NC2C(O)C(OC1OC(CO)C(O(C))C(O)C1N)C(CO)OC2(C),ethylene_glycol,OCCO,55.1,,,10.0,,,,,"['CO', 'O', 'CO', 'CC1OCCC(O)C1N', 'NC1COCCC1O', '.', 'OCCO']",['OCCO'],"['CO', 'O', 'CO', 'CC1OCCC(O)C1N', 'NC1COCCC1O', '.', 'OCCO']",30.0,32.9,25,3.0,0.093,575.0
pva,C(C)C(C)(O),ethylene_glycol,OCCO,58.9,,,10.0,,,,,"['CCC(C)O', '.', 'OCCO']",['OCCO'],"['CCC(C)O', '.', 'OCCO']",30.0,32.9,25,3.0,0.12,354.0
chitosan,NC2C(O)C(OC1OC(CO)C(O(C))C(O)C1N)C(CO)OC2(C),ethylene_glycol,OCCO,55.1,,,30.0,,,,,"['CO', 'O', 'CO', 'CC1OCCC(O)C1N', 'NC1COCCC1O', '.', 'OCCO']",['OCCO'],"['CO', 'O', 'CO', 'CC1OCCC(O)C1N', 'NC1COCCC1O', '.', 'OCCO']",30.0,32.9,25,3.0,0.288461538,64.229718
chitosan,NC2C(O)C(OC1OC(CO)C(O(C))C(O)C1N)C(CO)OC2(C),ethylene_glycol,OCCO,55.1,,,50.0,,,,,"['CO', 'O', 'CO', 'CC1OCCC(O)C1N', 'NC1COCCC1O', '.', 'OCCO']",['OCCO'],"['CO', 'O', 'CO', 'CC1OCCC(O)C1N', 'NC1COCCC1O', '.', 'OCCO']",30.0,32.9,25,3.0,0.426923077,24.234824
chitosan,NC2C(O)C(OC1OC(CO)C(O(C))C(O)C1N)C(CO)OC2(C),ethylene_glycol,OCCO,55.1,,,70.0,,,,,"['CO', 'O', 'CO', 'CC1OCCC(O)C1N', 'NC1COCCC1O', '.', 'OCCO']",['OCCO'],"['CO', 'O', 'CO', 'CC1OCCC(O)C1N', 'NC1COCCC1O', '.', 'OCCO']",30.0,32.9,25,3.0,0.588461538,2.554591
chitosan,NC2C(O)C(OC1OC(CO)C(O(C))C(O)C1N)C(CO)OC2(C),ethylene_glycol,OCCO,55.1,,,90.0,,,,,"['CO', 'O', 'CO', 'CC1OCCC(O)C1N', 'NC1COCCC1O', '.', 'OCCO']",['OCCO'],"['CO', 'O', 'CO', 'CC1OCCC(O)C1N', 'NC1COCCC1O', '.', 'OCCO']",30.0,32.9,25,3.0,0.776923077,1.1
chitosan,NC2C(O)C(OC1OC(CO)C(O(C))C(O)C1N)C(CO)OC2(C),ethylene_glycol,OCCO,55.1,,,5.0,,,,,"['CO', 'O', 'CO', 'CC1OCCC(O)C1N', 'NC1COCCC1O', '.', 'OCCO']",['OCCO'],"['CO', 'O', 'CO', 'CC1OCCC(O)C1N', 'NC1COCCC1O', '.', 'OCCO']",10.0,32.9,80,6.7,0.156521739,1288.2
chitosan,NC2C(O)C(OC1OC(CO)C(O(C))C(O)C1N)C(CO)OC2(C),ethylene_glycol,OCCO,55.1,,,20.0,,,,,"['CO', 'O', 'CO', 'CC1OCCC(O)C1N', 'NC1COCCC1O', '.', 'OCCO']",['OCCO'],"['CO', 'O', 'CO', 'CC1OCCC(O)C1N', 'NC1COCCC1O', '.', 'OCCO']",10.0,32.9,30,6.7,0.264724919,4529.333333
chitosan,NC2C(O)C(OC1OC(CO)C(O(C))C(O)C1N)C(CO)OC2(C),ethylene_glycol,OCCO,55.1,,,20.0,,,,,"['CO', 'O', 'CO', 'CC1OCCC(O)C1N', 'NC1COCCC1O', '.', 'OCCO']",['OCCO'],"['CO', 'O', 'CO', 'CC1OCCC(O)C1N', 'NC1COCCC1O', '.', 'OCCO']",10.0,32.9,45,6.7,0.445954693,4529.333333
chitosan,NC2C(O)C(OC1OC(CO)C(O(C))C(O)C1N)C(CO)OC2(C),ethylene_glycol,OCCO,55.1,,,10.0,,,,,"['CO', 'O', 'CO', 'CC1OCCC(O)C1N', 'NC1COCCC1O', '.', 'OCCO']",['OCCO'],"['CO', 'O', 'CO', 'CC1OCCC(O)C1N', 'NC1COCCC1O', '.', 'OCCO']",10.0,32.9,80,6.7,0.614492754,1337.086957
chitosan,NC2C(O)C(OC1OC(CO)C(O(C))C(O)C1N)C(CO)OC2(C),ethylene_glycol,OCCO,55.1,,,20.0,,,,,"['CO', 'O', 'CO', 'CC1OCCC(O)C1N', 'NC1COCCC1O', '.', 'OCCO']",['OCCO'],"['CO', 'O', 'CO', 'CC1OCCC(O)C1N', 'NC1COCCC1O', '.', 'OCCO']",10.0,32.9,60,6.7,0.688673139,796.0
chitosan,NC2C(O)C(OC1OC(CO)C(O(C))C(O)C1N)C(CO)OC2(C),ethylene_glycol,OCCO,55.1,,,20.0,,,,,"['CO', 'O', 'CO', 'CC1OCCC(O)C1N', 'NC1COCCC1O', '.', 'OCCO']",['OCCO'],"['CO', 'O', 'CO', 'CC1OCCC(O)C1N', 'NC1COCCC1O', '.', 'OCCO']",10.0,32.9,80,6.7,1.125566343,796.0
chitosan,NC2C(O)C(OC1OC(CO)C(O(C))C(O)C1N)C(CO)OC2(C),ethylene_glycol,OCCO,55.1,,,20.0,,,,,"['CO', 'O', 'CO', 'CC1OCCC(O)C1N', 'NC1COCCC1O', '.', 'OCCO']",['OCCO'],"['CO', 'O', 'CO', 'CC1OCCC(O)C1N', 'NC1COCCC1O', '.', 'OCCO']",10.0,32.9,80,6.7,1.130434783,805.411765
alginate,O=C(O)C1OC(C)C(O)C(O)C1O(C).O=C(O)C1OC(C)C(O)C(O)C1O(C),acetic_acid,CC(=O)O,37.37,,,10.0,,,,,"['CO', 'O=CO', 'CC1OCCC(O)C1O', '.', 'CC(=O)O']",['CC(=O)O'],"['CO', 'O=CO', 'CC1OCCC(O)C1O', '.', 'CC(=O)O']",5.0,21.4,30,1.5,0.102040816,170.125428
alginate,O=C(O)C1OC(C)C(O)C(O)C1O(C).O=C(O)C1OC(C)C(O)C(O)C1O(C),acetic_acid,CC(=O)O,37.37,,,10.0,,,,,"['CO', 'O=CO', 'CC1OCCC(O)C1O', '.', 'CC(=O)O']",['CC(=O)O'],"['CO', 'O=CO', 'CC1OCCC(O)C1O', '.', 'CC(=O)O']",5.0,21.4,30,1.5,0.16123348,95.221238
alginate,O=C(O)C1OC(C)C(O)C(O)C1O(C).O=C(O)C1OC(C)C(O)C(O)C1O(C),acetic_acid,CC(=O)O,37.37,,,10.0,,,,,"['CO', 'O=CO', 'CC1OCCC(O)C1O', '.', 'CC(=O)O']",['CC(=O)O'],"['CO', 'O=CO', 'CC1OCCC(O)C1O', '.', 'CC(=O)O']",5.0,21.4,40,1.5,0.179591837,93.160277
alginate,O=C(O)C1OC(C)C(O)C(O)C1O(C).O=C(O)C1OC(C)C(O)C(O)C1O(C),acetic_acid,CC(=O)O,37.37,,,10.0,,,,,"['CO', 'O=CO', 'CC1OCCC(O)C1O', '.', 'CC(=O)O']",['CC(=O)O'],"['CO', 'O=CO', 'CC1OCCC(O)C1O', '.', 'CC(=O)O']",5.0,21.4,60,1.5,0.387755102,63.095734
alginate,O=C(O)C1OC(C)C(O)C(O)C1O(C).O=C(O)C1OC(C)C(O)C(O)C1O(C),acetic_acid,CC(=O)O,37.37,,,10.0,,,,,"['CO', 'O=CO', 'CC1OCCC(O)C1O', '.', 'CC(=O)O']",['CC(=O)O'],"['CO', 'O=CO', 'CC1OCCC(O)C1O', '.', 'CC(=O)O']",40.0,21.4,30,13.3,0.007318501,19.4
alginate,O=C(O)C1OC(C)C(O)C(O)C1O(C).O=C(O)C1OC(C)C(O)C(O)C1O(C),acetic_acid,CC(=O)O,37.37,,,20.0,,,,,"['CO', 'O=CO', 'CC1OCCC(O)C1O', '.', 'CC(=O)O']",['CC(=O)O'],"['CO', 'O=CO', 'CC1OCCC(O)C1O', '.', 'CC(=O)O']",40.0,21.4,30,13.3,0.024996875,16.0
alginate,O=C(O)C1OC(C)C(O)C(O)C1O(C).O=C(O)C1OC(C)C(O)C(O)C1O(C),acetic_acid,CC(=O)O,37.37,,,30.0,,,,,"['CO', 'O=CO', 'CC1OCCC(O)C1O', '.', 'CC(=O)O']",['CC(=O)O'],"['CO', 'O=CO', 'CC1OCCC(O)C1O', '.', 'CC(=O)O']",40.0,21.4,30,13.3,0.051647811,10.2
alginate,O=C(O)C1OC(C)C(O)C(O)C1O(C).O=C(O)C1OC(C)C(O)C(O)C1O(C),acetic_acid,CC(=O)O,37.37,,,40.0,,,,,"['CO', 'O=CO', 'CC1OCCC(O)C1O', '.', 'CC(=O)O']",['CC(=O)O'],"['CO', 'O=CO', 'CC1OCCC(O)C1O', '.', 'CC(=O)O']",40.0,21.4,30,13.3,0.065597668,7.0
alginate,O=C(O)C1OC(C)C(O)C(O)C1O(C).O=C(O)C1OC(C)C(O)C(O)C1O(C),acetic_acid,CC(=O)O,37.37,,,50.0,,,,,"['CO', 'O=CO', 'CC1OCCC(O)C1O', '.', 'CC(=O)O']",['CC(=O)O'],"['CO', 'O=CO', 'CC1OCCC(O)C1O', '.', 'CC(=O)O']",40.0,21.4,30,13.3,0.086507269,5.0
alginate,O=C(O)C1OC(C)C(O)C(O)C1O(C).O=C(O)C1OC(C)C(O)C(O)C1O(C),acetic_acid,CC(=O)O,37.37,,,10.0,,,,,"['CO', 'O=CO', 'CC1OCCC(O)C1O', '.', 'CC(=O)O']",['CC(=O)O'],"['CO', 'O=CO', 'CC1OCCC(O)C1O', '.', 'CC(=O)O']",45.0,21.4,40,2.66,0.037,38.0
alginate,O=C(O)C1OC(C)C(O)C(O)C1O(C).O=C(O)C1OC(C)C(O)C(O)C1O(C),acetic_acid,CC(=O)O,37.37,,,10.0,,,,,"['CO', 'O=CO', 'CC1OCCC(O)C1O', '.', 'CC(=O)O']",['CC(=O)O'],"['CO', 'O=CO', 'CC1OCCC(O)C1O', '.', 'CC(=O)O']",45.0,21.4,50,2.66,0.054,60.0
alginate,O=C(O)C1OC(C)C(O)C(O)C1O(C).O=C(O)C1OC(C)C(O)C(O)C1O(C),acetic_acid,CC(=O)O,37.37,,,10.0,,,,,"['CO', 'O=CO', 'CC1OCCC(O)C1O', '.', 'CC(=O)O']",['CC(=O)O'],"['CO', 'O=CO', 'CC1OCCC(O)C1O', '.', 'CC(=O)O']",45.0,21.4,60,2.66,0.092,98.0
alginate,O=C(O)C1OC(C)C(O)C(O)C1O(C).O=C(O)C1OC(C)C(O)C(O)C1O(C),acetic_acid,CC(=O)O,37.37,,,10.0,,,,,"['CO', 'O=CO', 'CC1OCCC(O)C1O', '.', 'CC(=O)O']",['CC(=O)O'],"['CO', 'O=CO', 'CC1OCCC(O)C1O', '.', 'CC(=O)O']",45.0,21.4,70,2.66,0.138,134.0
alginate,O=C(O)C1OC(C)C(O)C(O)C1O(C).O=C(O)C1OC(C)C(O)C(O)C1O(C),acetic_acid,CC(=O)O,37.37,,,10.0,,,,,"['CO', 'O=CO', 'CC1OCCC(O)C1O', '.', 'CC(=O)O']",['CC(=O)O'],"['CO', 'O=CO', 'CC1OCCC(O)C1O', '.', 'CC(=O)O']",50.0,21.4,30,13.3,0.081,22.0
alginate,O=C(O)C1OC(C)C(O)C(O)C1O(C).O=C(O)C1OC(C)C(O)C(O)C1O(C),acetic_acid,CC(=O)O,37.37,,,20.0,,,,,"['CO', 'O=CO', 'CC1OCCC(O)C1O', '.', 'CC(=O)O']",['CC(=O)O'],"['CO', 'O=CO', 'CC1OCCC(O)C1O', '.', 'CC(=O)O']",50.0,21.4,30,13.3,0.115,14.0
alginate,O=C(O)C1OC(C)C(O)C(O)C1O(C).O=C(O)C1OC(C)C(O)C(O)C1O(C),acetic_acid,CC(=O)O,37.37,,,30.0,,,,,"['CO', 'O=CO', 'CC1OCCC(O)C1O', '.', 'CC(=O)O']",['CC(=O)O'],"['CO', 'O=CO', 'CC1OCCC(O)C1O', '.', 'CC(=O)O']",50.0,21.4,30,13.3,0.168,9.0
alginate,O=C(O)C1OC(C)C(O)C(O)C1O(C).O=C(O)C1OC(C)C(O)C(O)C1O(C),acetic_acid,CC(=O)O,37.37,,,10.0,,,,,"['CO', 'O=CO', 'CC1OCCC(O)C1O', '.', 'CC(=O)O']",['CC(=O)O'],"['CO', 'O=CO', 'CC1OCCC(O)C1O', '.', 'CC(=O)O']",50.0,21.4,50,13.3,0.187,13.0
alginate,O=C(O)C1OC(C)C(O)C(O)C1O(C).O=C(O)C1OC(C)C(O)C(O)C1O(C),acetic_acid,CC(=O)O,37.37,,,10.0,,,,,"['CO', 'O=CO', 'CC1OCCC(O)C1O', '.', 'CC(=O)O']",['CC(=O)O'],"['CO', 'O=CO', 'CC1OCCC(O)C1O', '.', 'CC(=O)O']",50.0,21.4,60,13.3,0.222,10.0
alginate,O=C(O)C1OC(C)C(O)C(O)C1O(C).O=C(O)C1OC(C)C(O)C(O)C1O(C),acetic_acid,CC(=O)O,37.37,,,40.0,,,,,"['CO', 'O=CO', 'CC1OCCC(O)C1O', '.', 'CC(=O)O']",['CC(=O)O'],"['CO', 'O=CO', 'CC1OCCC(O)C1O', '.', 'CC(=O)O']",50.0,21.4,30,13.3,0.234,6.0
alginate,O=C(O)C1OC(C)C(O)C(O)C1O(C).O=C(O)C1OC(C)C(O)C(O)C1O(C),acetic_acid,CC(=O)O,37.37,,,10.0,,,,,"['CO', 'O=CO', 'CC1OCCC(O)C1O', '.', 'CC(=O)O']",['CC(=O)O'],"['CO', 'O=CO', 'CC1OCCC(O)C1O', '.', 'CC(=O)O']",50.0,21.4,70,13.3,0.269,9.0
pva,C(C)C(C)(O),acetic_acid,CC(=O)O,74.0,,,80.0,,,,,"['CCC(C)O', '.', 'CC(=O)O']",['CC(=O)O'],"['CCC(C)O', '.', 'CC(=O)O']",35.0,21.4,25,0.23,0.95,1.76
pva,C(C)C(C)(O),acetic_acid,CC(=O)O,74.0,,,80.0,,,,,"['CCC(C)O', '.', 'CC(=O)O']",['CC(=O)O'],"['CCC(C)O', '.', 'CC(=O)O']",35.0,21.4,45,0.23,4.47,1.23
pva,C(C)C(C)(O),acetic_acid,CC(=O)O,74.0,,,80.0,,,,,"['CCC(C)O', '.', 'CC(=O)O']",['CC(=O)O'],"['CCC(C)O', '.', 'CC(=O)O']",35.0,21.4,50,0.23,5.7,1.05
ppsu,O=S(=O)(c1ccc(C)cc1)c4ccc(Oc3ccc(c2ccc(O(C))cc2)cc3)cc4,acetic_acid,CC(=O)O,92.2,,,10.0,,,,,"['Cc1ccc(S(=O)(=O)c2ccccc2)cc1', 'CO', 'O', 'c1ccccc1', '.', 'CC(=O)O']",['CC(=O)O'],"['Cc1ccc(S(=O)(=O)c2ccccc2)cc1', 'CO', 'O', 'c1ccccc1', '.', 'CC(=O)O']",0.549,21.4,50,2.5,0.8,4.4
ppsu,O=S(=O)(c1ccc(C)cc1)c4ccc(Oc3ccc(c2ccc(O(C))cc2)cc3)cc4,acetic_acid,CC(=O)O,92.2,,,5.0,,,,,"['Cc1ccc(S(=O)(=O)c2ccccc2)cc1', 'CO', 'O', 'c1ccccc1', '.', 'CC(=O)O']",['CC(=O)O'],"['Cc1ccc(S(=O)(=O)c2ccccc2)cc1', 'CO', 'O', 'c1ccccc1', '.', 'CC(=O)O']",0.549,21.4,50,2.5,1.18,8.9
ppsu,O=S(=O)(c1ccc(C)cc1)c4ccc(Oc3ccc(c2ccc(O(C))cc2)cc3)cc4,acetic_acid,CC(=O)O,92.2,,,15.0,,,,,"['Cc1ccc(S(=O)(=O)c2ccccc2)cc1', 'CO', 'O', 'c1ccccc1', '.', 'CC(=O)O']",['CC(=O)O'],"['Cc1ccc(S(=O)(=O)c2ccccc2)cc1', 'CO', 'O', 'c1ccccc1', '.', 'CC(=O)O']",0.308,21.4,50,2.5,0.2,6.7
ppsu,O=S(=O)(c1ccc(C)cc1)c4ccc(Oc3ccc(c2ccc(O(C))cc2)cc3)cc4,acetic_acid,CC(=O)O,92.2,,,10.0,,,,,"['Cc1ccc(S(=O)(=O)c2ccccc2)cc1', 'CO', 'O', 'c1ccccc1', '.', 'CC(=O)O']",['CC(=O)O'],"['Cc1ccc(S(=O)(=O)c2ccccc2)cc1', 'CO', 'O', 'c1ccccc1', '.', 'CC(=O)O']",0.308,21.4,50,2.5,0.21,5.7
ppsu,O=S(=O)(c1ccc(C)cc1)c4ccc(Oc3ccc(c2ccc(O(C))cc2)cc3)cc4,acetic_acid,CC(=O)O,92.2,,,5.0,,,,,"['Cc1ccc(S(=O)(=O)c2ccccc2)cc1', 'CO', 'O', 'c1ccccc1', '.', 'CC(=O)O']",['CC(=O)O'],"['Cc1ccc(S(=O)(=O)c2ccccc2)cc1', 'CO', 'O', 'c1ccccc1', '.', 'CC(=O)O']",0.308,21.4,50,2.5,0.28,14.9
ppsu,O=S(=O)(c1ccc(C)cc1)c4ccc(Oc3ccc(c2ccc(O(C))cc2)cc3)cc4,acetic_acid,CC(=O)O,92.2,,,20.0,,,,,"['Cc1ccc(S(=O)(=O)c2ccccc2)cc1', 'CO', 'O', 'c1ccccc1', '.', 'CC(=O)O']",['CC(=O)O'],"['Cc1ccc(S(=O)(=O)c2ccccc2)cc1', 'CO', 'O', 'c1ccccc1', '.', 'CC(=O)O']",0.308,21.4,50,2.5,0.31,5.3
ppsu,O=S(=O)(c1ccc(C)cc1)c4ccc(Oc3ccc(c2ccc(O(C))cc2)cc3)cc4,acetic_acid,CC(=O)O,92.2,,,15.0,,,,,"['Cc1ccc(S(=O)(=O)c2ccccc2)cc1', 'CO', 'O', 'c1ccccc1', '.', 'CC(=O)O']",['CC(=O)O'],"['Cc1ccc(S(=O)(=O)c2ccccc2)cc1', 'CO', 'O', 'c1ccccc1', '.', 'CC(=O)O']",0.227,21.4,50,2.5,0.28,6.9
ppsu,O=S(=O)(c1ccc(C)cc1)c4ccc(Oc3ccc(c2ccc(O(C))cc2)cc3)cc4,acetic_acid,CC(=O)O,92.2,,,5.0,,,,,"['Cc1ccc(S(=O)(=O)c2ccccc2)cc1', 'CO', 'O', 'c1ccccc1', '.', 'CC(=O)O']",['CC(=O)O'],"['Cc1ccc(S(=O)(=O)c2ccccc2)cc1', 'CO', 'O', 'c1ccccc1', '.', 'CC(=O)O']",0.227,21.4,50,2.5,0.35,12.7
ppsu,O=S(=O)(c1ccc(C)cc1)c4ccc(Oc3ccc(c2ccc(O(C))cc2)cc3)cc4,acetic_acid,CC(=O)O,92.2,,,20.0,,,,,"['Cc1ccc(S(=O)(=O)c2ccccc2)cc1', 'CO', 'O', 'c1ccccc1', '.', 'CC(=O)O']",['CC(=O)O'],"['Cc1ccc(S(=O)(=O)c2ccccc2)cc1', 'CO', 'O', 'c1ccccc1', '.', 'CC(=O)O']",0.227,21.4,50,2.5,0.37,6.6
pdms,[Si](C)(C)(C)O(C),acetic_acid,CC(=O)O,108.08219,,,94.62,,,,,"['CO[Si](C)(C)C', '.', 'CC(=O)O']",['CC(=O)O'],"['CO[Si](C)(C)C', '.', 'CC(=O)O']",95.0,21.4,25,0.17,0.045700935,0.798188
pdms,[Si](C)(C)(C)O(C),acetic_acid,CC(=O)O,108.08219,,,89.72,,,,,"['CO[Si](C)(C)C', '.', 'CC(=O)O']",['CC(=O)O'],"['CO[Si](C)(C)C', '.', 'CC(=O)O']",95.0,21.4,25,0.17,0.050607477,0.669786
pdms,[Si](C)(C)(C)O(C),acetic_acid,CC(=O)O,108.08219,,,90.0,,,,,"['CO[Si](C)(C)C', '.', 'CC(=O)O']",['CC(=O)O'],"['CO[Si](C)(C)C', '.', 'CC(=O)O']",95.0,21.4,25,0.17,0.053214286,0.722543
pdms,[Si](C)(C)(C)O(C),acetic_acid,CC(=O)O,108.08219,,,89.97,,,,,"['CO[Si](C)(C)C', '.', 'CC(=O)O']",['CC(=O)O'],"['CO[Si](C)(C)C', '.', 'CC(=O)O']",95.0,21.4,25,0.17,0.056168224,0.639844
pdms,[Si](C)(C)(C)O(C),acetic_acid,CC(=O)O,108.08219,,,90.0,,,,,"['CO[Si](C)(C)C', '.', 'CC(=O)O']",['CC(=O)O'],"['CO[Si](C)(C)C', '.', 'CC(=O)O']",95.0,21.4,35,0.17,0.057857143,0.739645
pdms,[Si](C)(C)(C)O(C),acetic_acid,CC(=O)O,108.08219,,,81.42,,,,,"['CO[Si](C)(C)C', '.', 'CC(=O)O']",['CC(=O)O'],"['CO[Si](C)(C)C', '.', 'CC(=O)O']",95.0,21.4,25,0.17,0.061728972,0.569793
pdms,[Si](C)(C)(C)O(C),acetic_acid,CC(=O)O,108.08219,,,80.28,,,,,"['CO[Si](C)(C)C', '.', 'CC(=O)O']",['CC(=O)O'],"['CO[Si](C)(C)C', '.', 'CC(=O)O']",95.0,21.4,25,0.17,0.064345794,0.584333
pdms,[Si](C)(C)(C)O(C),acetic_acid,CC(=O)O,108.08219,,,70.09,,,,,"['CO[Si](C)(C)C', '.', 'CC(=O)O']",['CC(=O)O'],"['CO[Si](C)(C)C', '.', 'CC(=O)O']",95.0,21.4,25,0.17,0.064672897,0.558673
pdms,[Si](C)(C)(C)O(C),acetic_acid,CC(=O)O,108.08219,,,79.78,,,,,"['CO[Si](C)(C)C', '.', 'CC(=O)O']",['CC(=O)O'],"['CO[Si](C)(C)C', '.', 'CC(=O)O']",95.0,21.4,25,0.17,0.068925234,0.614106
pdms,[Si](C)(C)(C)O(C),acetic_acid,CC(=O)O,108.08219,,,70.72,,,,,"['CO[Si](C)(C)C', '.', 'CC(=O)O']",['CC(=O)O'],"['CO[Si](C)(C)C', '.', 'CC(=O)O']",95.0,21.4,25,0.17,0.071214953,0.55194
pdms,[Si](C)(C)(C)O(C),acetic_acid,CC(=O)O,108.08219,,,90.0,,,,,"['CO[Si](C)(C)C', '.', 'CC(=O)O']",['CC(=O)O'],"['CO[Si](C)(C)C', '.', 'CC(=O)O']",95.0,21.4,45,0.17,0.086071429,0.717566