Polymer,Polymer_SMILES,Solvent,Solvent_SMILES,Contact_angle,Thickness,Solvent_solubility_parameter,xw_wt_percent,Temperature,Permeate_pressure,J_total_flux,a_separation_factor,Polymer_BRICS,Solvent_BRICS,PS_pair_BRICS,Thickness_um,Solvent_solubility_parameter_Mpa_sqrt,Temp_C,Permeate_pressure_mbar,J_Total_flux_kg_m_2h_1,a_Separation_factor_wo
pdms,[Si](C)(C)(C)O(C),acetic_acid,CC(=O)O,108.08219,,,90.09,,,,,"['CO[Si](C)(C)C', '.', 'CC(=O)O']",['CC(=O)O'],"['CO[Si](C)(C)C', '.', 'CC(=O)O']",95.0,21.4,25,0.17,0.051261682,0.660133
pdms,[Si](C)(C)(C)O(C),acetic_acid,CC(=O)O,108.08219,,,70.6,,,,,"['CO[Si](C)(C)C', '.', 'CC(=O)O']",['CC(=O)O'],"['CO[Si](C)(C)C', '.', 'CC(=O)O']",95.0,21.4,25,0.17,0.085607477,0.545368
ppsu,O=S(=O)(c1ccc(C)cc1)c4ccc(Oc3ccc(c2ccc(O(C))cc2)cc3)cc4,methanol,CO,92.2,,,15.0,,,,,"['Cc1ccc(S(=O)(=O)c2ccccc2)cc1', 'CO', 'O', 'c1ccccc1', '.', 'CO']",['CO'],"['Cc1ccc(S(=O)(=O)c2ccccc2)cc1', 'CO', 'O', 'c1ccccc1', '.', 'CO']",16.0,29.6,60,1.0,0.027205882,8.561863
ppsu,O=S(=O)(c1ccc(C)cc1)c4ccc(Oc3ccc(c2ccc(O(C))cc2)cc3)cc4,ethanol,CCO,92.2,,,15.0,,,,,"['Cc1ccc(S(=O)(=O)c2ccccc2)cc1', 'CO', 'O', 'c1ccccc1', '.', 'CCO']",['CCO'],"['Cc1ccc(S(=O)(=O)c2ccccc2)cc1', 'CO', 'O', 'c1ccccc1', '.', 'CCO']",16.0,26.5,75,1.0,0.047104558,201.457726
alginate,O=C(O)C1OC(C)C(O)C(O)C1O(C).O=C(O)C1OC(C)C(O)C(O)C1O(C),ethanol,CCO,72.0,,,4.0,,,,,"['CO', 'O=CO', 'CC1OCCC(O)C1O', '.', 'CCO']",['CCO'],"['CO', 'O=CO', 'CC1OCCC(O)C1O', '.', 'CCO']",40.0,26.5,30,5.0,0.021,55.0
alginate,O=C(O)C1OC(C)C(O)C(O)C1O(C).O=C(O)C1OC(C)C(O)C(O)C1O(C),ethanol,CCO,37.37,,,10.0,,,,,"['CO', 'O=CO', 'CC1OCCC(O)C1O', '.', 'CCO']",['CCO'],"['CO', 'O=CO', 'CC1OCCC(O)C1O', '.', 'CCO']",45.0,26.5,70,3.0,0.297,861.95
alginate,O=C(O)C1OC(C)C(O)C(O)C1O(C).O=C(O)C1OC(C)C(O)C(O)C1O(C),ipa,CC(C)O,37.37,,,15.0,,,,,"['CO', 'O=CO', 'CC1OCCC(O)C1O', '.', 'CC(C)O']",['CC(C)O'],"['CO', 'O=CO', 'CC1OCCC(O)C1O', '.', 'CC(C)O']",45.0,23.5,50,3.0,1.456,2284.0
pan,CCC(C#N)(C),ethanol,CCO,95.0,,,51.0,,,,,"['CCC(C)C#N', '.', 'CCO']",['CCO'],"['CCC(C)C#N', '.', 'CCO']",40.0,26.5,50,1.0,0.0022,103.0
pva,C(C)C(C)(O),ethanol,CCO,80.1,,,50.0,,,,,"['CCC(C)O', '.', 'CCO']",['CCO'],"['CCC(C)O', '.', 'CCO']",22.0,26.5,40,3.0,0.6657,38.169935
pva,C(C)C(C)(O),ethanol,CCO,74.0,,,60.0,,,,,"['CCC(C)O', '.', 'CCO']",['CCO'],"['CCC(C)O', '.', 'CCO']",22.0,26.5,25,3.0,1.1031,17.197452
pva,C(C)C(C)(O),ethanol,CCO,74.0,,,70.0,,,,,"['CCC(C)O', '.', 'CCO']",['CCO'],"['CCC(C)O', '.', 'CCO']",22.0,26.5,25,3.0,1.433,12.420382
pva,C(C)C(C)(O),ethanol,CCO,70.7,,,70.0,,,,,"['CCC(C)O', '.', 'CCO']",['CCO'],"['CCC(C)O', '.', 'CCO']",22.0,26.5,40,3.0,1.847,14.306569
pva,C(C)C(C)(O),ethanol,CCO,76.2,,,80.0,,,,,"['CCC(C)O', '.', 'CCO']",['CCO'],"['CCC(C)O', '.', 'CCO']",22.0,26.5,40,3.0,1.918,11.113139
pva,C(C)C(C)(O),ethanol,CCO,70.7,,,80.0,,,,,"['CCC(C)O', '.', 'CCO']",['CCO'],"['CCC(C)O', '.', 'CCO']",22.0,26.5,40,3.0,2.4208,9.708029
chitosan,NC2C(O)C(OC1OC(CO)C(O(C))C(O)C1N)C(CO)OC2(C),ethanol,CCO,55.1,,,15.0,,,,,"['CO', 'O', 'CO', 'CC1OCCC(O)C1N', 'NC1COCCC1O', '.', 'CCO']",['CCO'],"['CO', 'O', 'CO', 'CC1OCCC(O)C1N', 'NC1COCCC1O', '.', 'CCO']",18.0,26.5,50,10.0,0.28,203.69
ptmsp,C/C(C)=C(C)/[Si](C)(C)C,ethanol,CCO,100.0,,,95.0,,,,,"['CCC', 'CC[Si](C)(C)C', '.', 'CCO']",['CCO'],"['CCC', 'CC[Si](C)(C)C', '.', 'CCO']",84.43,26.5,50,0.04,0.3041,0.041137
ptmsp,C/C(C)=C(C)/[Si](C)(C)C,ethanol,CCO,100.0,,,95.0,,,,,"['CCC', 'CC[Si](C)(C)C', '.', 'CCO']",['CCO'],"['CCC', 'CC[Si](C)(C)C', '.', 'CCO']",14.96,26.5,50,0.04,1.5246,0.044806
pdms,[Si](C)(C)(C)O(C),ethanol,CCO,108.08219,,,94.0,,,,,"['CO[Si](C)(C)C', '.', 'CCO']",['CCO'],"['CO[Si](C)(C)C', '.', 'CCO']",120.0,26.5,40,1.0,0.027,0.114943
pva,C(C)C(C)(O),ethanol,CCO,69.6,,,10.0,,,,,"['CCC(C)O', '.', 'CCO']",['CCO'],"['CCC(C)O', '.', 'CCO']",40.0,26.5,50,3.5,0.086,395.744681
pva,C(C)C(C)(O),ethanol,CCO,69.6,,,10.0,,,,,"['CCC(C)O', '.', 'CCO']",['CCO'],"['CCC(C)O', '.', 'CCO']",40.0,26.5,70,3.5,0.1308,164.133739
pdms,[Si](C)(C)(C)O(C),ethanol,CCO,108.08219,,,94.0,,,,,"['CO[Si](C)(C)C', '.', 'CCO']",['CCO'],"['CO[Si](C)(C)C', '.', 'CCO']",9.5,26.5,40,3.0,0.9112,0.123478